12                                                          
# CELL(abcABC):  100.00000   100.00000   100.00000    90.00000    90.00000    90.00000  Step:           0  Bead:       0 positions{angstrom}  cell{angstrom}    
       C -4.01524e+01 -2.32545e+01 -1.77268e+01             
       C -3.93256e+01 -2.19598e+01 -1.80601e+01             
       O -3.98141e+01 -2.11012e+01 -1.87964e+01             
       N -3.79996e+01 -2.20030e+01 -1.76897e+01             
       C -3.71356e+01 -2.08692e+01 -1.76973e+01             
       H -4.02783e+01 -2.32606e+01 -1.66514e+01             
       H -4.11031e+01 -2.30104e+01 -1.81814e+01             
       H -3.97585e+01 -2.41270e+01 -1.81750e+01             
       H -3.65862e+01 -2.09037e+01 -1.67558e+01             
       H -3.64007e+01 -2.09211e+01 -1.85553e+01             
       H -3.77730e+01 -1.99918e+01 -1.79391e+01             
       H -3.78067e+01 -2.26667e+01 -1.69611e+01             
12                                                          
# CELL(abcABC):  100.00000   100.00000   100.00000    90.00000    90.00000    90.00000  Step:      300000  Bead:       0 positions{angstrom}  cell{angstrom}    
       C -8.83983e+01 -5.14461e+01 -4.11679e+01             
       C -8.96506e+01 -5.11191e+01 -4.19092e+01             
       O -8.98389e+01 -5.01285e+01 -4.26556e+01             
       N -9.06701e+01 -5.19995e+01 -4.15232e+01             
       C -9.21122e+01 -5.17635e+01 -4.17662e+01             
       H -8.84385e+01 -5.08419e+01 -4.02321e+01             
       H -8.83492e+01 -5.24344e+01 -4.07418e+01             
       H -8.74103e+01 -5.13349e+01 -4.17331e+01             
       H -9.26544e+01 -5.26090e+01 -4.12713e+01             
       H -9.23093e+01 -5.08096e+01 -4.12764e+01             
       H -9.24633e+01 -5.17271e+01 -4.28331e+01             
       H -9.03699e+01 -5.28308e+01 -4.09802e+01             
