12                                                          
# CELL(abcABC):  100.00000   100.00000   100.00000    90.00000    90.00000    90.00000  Step:           0  Bead:       0 positions{angstrom}  cell{angstrom}    
       C -3.65257e+01 -2.06591e+01 -1.63343e+01             
       C -3.53445e+01 -1.97649e+01 -1.64719e+01             
       O -3.50724e+01 -1.90876e+01 -1.74367e+01             
       N -3.45191e+01 -1.96888e+01 -1.53593e+01             
       C -3.33531e+01 -1.87132e+01 -1.52786e+01             
       H -3.66114e+01 -2.12463e+01 -1.72548e+01             
       H -3.63950e+01 -2.12181e+01 -1.53313e+01             
       H -3.73954e+01 -1.99029e+01 -1.62429e+01             
       H -3.27701e+01 -1.86929e+01 -1.43473e+01             
       H -3.25853e+01 -1.90262e+01 -1.59890e+01             
       H -3.36572e+01 -1.77103e+01 -1.55663e+01             
       H -3.47008e+01 -2.02068e+01 -1.45056e+01             
12                                                          
# CELL(abcABC):  100.00000   100.00000   100.00000    90.00000    90.00000    90.00000  Step:      300000  Bead:       0 positions{angstrom}  cell{angstrom}    
       C -9.20642e+01 -5.04922e+01 -4.24907e+01             
       C -9.08106e+01 -5.13134e+01 -4.23353e+01             
       O -9.00927e+01 -5.16125e+01 -4.33238e+01             
       N -9.05323e+01 -5.17240e+01 -4.10880e+01             
       C -8.94096e+01 -5.25523e+01 -4.07689e+01             
       H -9.20038e+01 -4.97739e+01 -4.33367e+01             
       H -9.29183e+01 -5.11573e+01 -4.27731e+01             
       H -9.22513e+01 -4.99692e+01 -4.15247e+01             
       H -8.88423e+01 -5.26911e+01 -4.16846e+01             
       H -8.88054e+01 -5.20892e+01 -3.99625e+01             
       H -8.99333e+01 -5.35423e+01 -4.04302e+01             
       H -9.10539e+01 -5.12555e+01 -4.03403e+01             
