12                                                          
# CELL(abcABC):  100.00000   100.00000   100.00000    90.00000    90.00000    90.00000  Step:           0  Bead:       0 positions{angstrom}  cell{angstrom}    
       C -4.66238e+01 -2.42993e+01 -2.05312e+01             
       C -4.53797e+01 -2.50203e+01 -2.08914e+01             
       O -4.42869e+01 -2.45487e+01 -2.07082e+01             
       N -4.55874e+01 -2.63012e+01 -2.13881e+01             
       C -4.44833e+01 -2.72649e+01 -2.13138e+01             
       H -4.75513e+01 -2.47327e+01 -2.10426e+01             
       H -4.67008e+01 -2.44009e+01 -1.94632e+01             
       H -4.65684e+01 -2.32358e+01 -2.07593e+01             
       H -4.41119e+01 -2.76472e+01 -2.23413e+01             
       H -4.35884e+01 -2.68176e+01 -2.08911e+01             
       H -4.47467e+01 -2.80630e+01 -2.05301e+01             
       H -4.65144e+01 -2.66959e+01 -2.13053e+01             
12                                                          
# CELL(abcABC):  100.00000   100.00000   100.00000    90.00000    90.00000    90.00000  Step:      300000  Bead:       0 positions{angstrom}  cell{angstrom}    
       C -9.82806e+01 -5.68805e+01 -4.55839e+01             
       C -9.75443e+01 -5.55275e+01 -4.52828e+01             
       O -9.79528e+01 -5.44279e+01 -4.57455e+01             
       N -9.64043e+01 -5.55332e+01 -4.45055e+01             
       C -9.56835e+01 -5.43081e+01 -4.41727e+01             
       H -9.92981e+01 -5.68295e+01 -4.52090e+01             
       H -9.83297e+01 -5.72189e+01 -4.66202e+01             
       H -9.78095e+01 -5.76960e+01 -4.49616e+01             
       H -9.46058e+01 -5.43272e+01 -4.44306e+01             
       H -9.61541e+01 -5.35189e+01 -4.47479e+01             
       H -9.57316e+01 -5.40760e+01 -4.30999e+01             
       H -9.60124e+01 -5.64021e+01 -4.42275e+01             
