12                                                          
# CELL(abcABC):  100.00000   100.00000   100.00000    90.00000    90.00000    90.00000  Step:           0  Bead:       0 positions{angstrom}  cell{angstrom}    
       C -3.84304e+01 -1.94460e+01 -1.78307e+01             
       C -3.78040e+01 -2.07028e+01 -1.72341e+01             
       O -3.71552e+01 -2.06768e+01 -1.61915e+01             
       N -3.79951e+01 -2.18733e+01 -1.79913e+01             
       C -3.70092e+01 -2.29456e+01 -1.78871e+01             
       H -3.91154e+01 -1.90924e+01 -1.71578e+01             
       H -3.76996e+01 -1.86247e+01 -1.77447e+01             
       H -3.88855e+01 -1.95209e+01 -1.88436e+01             
       H -3.62925e+01 -2.27473e+01 -1.70879e+01             
       H -3.75763e+01 -2.38718e+01 -1.76759e+01             
       H -3.65018e+01 -2.31439e+01 -1.88519e+01             
       H -3.86159e+01 -2.17803e+01 -1.87605e+01             
12                                                          
# CELL(abcABC):  100.00000   100.00000   100.00000    90.00000    90.00000    90.00000  Step:      300000  Bead:       0 positions{angstrom}  cell{angstrom}    
       C -7.67806e+01 -4.38889e+01 -3.66728e+01             
       C -7.81292e+01 -4.44677e+01 -3.61637e+01             
       O -7.83873e+01 -4.50649e+01 -3.51531e+01             
       N -7.90961e+01 -4.45491e+01 -3.71841e+01             
       C -8.03591e+01 -4.51886e+01 -3.69005e+01             
       H -7.61012e+01 -4.38275e+01 -3.58119e+01             
       H -7.64338e+01 -4.45989e+01 -3.74347e+01             
       H -7.68855e+01 -4.28612e+01 -3.70755e+01             
       H -8.09433e+01 -4.46007e+01 -3.61416e+01             
       H -8.08366e+01 -4.55281e+01 -3.77659e+01             
       H -8.01266e+01 -4.61488e+01 -3.63663e+01             
       H -7.90573e+01 -4.38253e+01 -3.78913e+01             
