12                                                          
# CELL(abcABC):  100.00000   100.00000   100.00000    90.00000    90.00000    90.00000  Step:           0  Bead:       0 positions{angstrom}  cell{angstrom}    
       C -1.20244e+01 -5.59012e+00 -3.68464e+00             
       C -1.09617e+01 -5.71353e+00 -4.77318e+00             
       O -1.12140e+01 -6.38055e+00 -5.74649e+00             
       N -9.83904e+00 -5.06745e+00 -4.53326e+00             
       C -8.69650e+00 -4.96471e+00 -5.45164e+00             
       H -1.16781e+01 -5.39353e+00 -2.59517e+00             
       H -1.28105e+01 -4.78150e+00 -3.94809e+00             
       H -1.24990e+01 -6.57958e+00 -3.55295e+00             
       H -7.82262e+00 -5.50688e+00 -4.91067e+00             
       H -8.96521e+00 -5.56604e+00 -6.34568e+00             
       H -8.33909e+00 -3.89694e+00 -5.68527e+00             
       H -9.81830e+00 -4.60864e+00 -3.62202e+00             
12                                                          
# CELL(abcABC):  100.00000   100.00000   100.00000    90.00000    90.00000    90.00000  Step:      300000  Bead:       0 positions{angstrom}  cell{angstrom}    
       C -4.35551e+01 -2.65531e+01 -1.99496e+01             
       C -4.44754e+01 -2.55663e+01 -2.05406e+01             
       O -4.55041e+01 -2.58572e+01 -2.11036e+01             
       N -4.41231e+01 -2.42213e+01 -2.03484e+01             
       C -4.48205e+01 -2.31689e+01 -2.10507e+01             
       H -4.33323e+01 -2.62695e+01 -1.89121e+01             
       H -4.40844e+01 -2.75061e+01 -1.99322e+01             
       H -4.25821e+01 -2.66309e+01 -2.03627e+01             
       H -4.42183e+01 -2.25995e+01 -2.18139e+01             
       H -4.56879e+01 -2.36491e+01 -2.16030e+01             
       H -4.51176e+01 -2.23901e+01 -2.03729e+01             
       H -4.32797e+01 -2.40541e+01 -1.98337e+01             
