12                                                          
# CELL(abcABC):  100.00000   100.00000   100.00000    90.00000    90.00000    90.00000  Step:           0  Bead:       0 positions{angstrom}  cell{angstrom}    
       C -1.51103e+01 -7.13791e+00 -5.09182e+00             
       C -1.40217e+01 -7.07113e+00 -6.15650e+00             
       O -1.37953e+01 -6.08469e+00 -6.81967e+00             
       N -1.31356e+01 -8.13811e+00 -6.14825e+00             
       C -1.19799e+01 -8.06122e+00 -7.03398e+00             
       H -1.53191e+01 -8.13790e+00 -4.72882e+00             
       H -1.48103e+01 -6.38098e+00 -4.37232e+00             
       H -1.60443e+01 -6.78776e+00 -5.48693e+00             
       H -1.14574e+01 -7.11055e+00 -6.85962e+00             
       H -1.12201e+01 -8.84361e+00 -6.68642e+00             
       H -1.22128e+01 -8.02338e+00 -8.14451e+00             
       H -1.34894e+01 -9.01258e+00 -5.75321e+00             
12                                                          
# CELL(abcABC):  100.00000   100.00000   100.00000    90.00000    90.00000    90.00000  Step:      300000  Bead:       0 positions{angstrom}  cell{angstrom}    
       C -5.00901e+01 -2.76574e+01 -2.12845e+01             
       C -4.90439e+01 -2.72548e+01 -2.22254e+01             
       O -4.88274e+01 -2.60883e+01 -2.25028e+01             
       N -4.82795e+01 -2.82632e+01 -2.27996e+01             
       C -4.72577e+01 -2.80839e+01 -2.38686e+01             
       H -5.01344e+01 -2.87081e+01 -2.08845e+01             
       H -5.01747e+01 -2.68708e+01 -2.05425e+01             
       H -5.10222e+01 -2.77146e+01 -2.18534e+01             
       H -4.72947e+01 -2.70441e+01 -2.42572e+01             
       H -4.62351e+01 -2.81642e+01 -2.34618e+01             
       H -4.73843e+01 -2.87575e+01 -2.46390e+01             
       H -4.87314e+01 -2.91700e+01 -2.27388e+01             
