12                                                          
# CELL(abcABC):  100.00000   100.00000   100.00000    90.00000    90.00000    90.00000  Step:           0  Bead:       0 positions{angstrom}  cell{angstrom}    
       C -3.95784e+01 -2.03859e+01 -1.79731e+01             
       C -3.82067e+01 -2.09075e+01 -1.74879e+01             
       O -3.75708e+01 -2.03655e+01 -1.65852e+01             
       N -3.78278e+01 -2.20420e+01 -1.81207e+01             
       C -3.66675e+01 -2.27615e+01 -1.76803e+01             
       H -4.00471e+01 -1.99022e+01 -1.70349e+01             
       H -3.93150e+01 -1.96821e+01 -1.87757e+01             
       H -4.01918e+01 -2.12484e+01 -1.83116e+01             
       H -3.58141e+01 -2.21234e+01 -1.74390e+01             
       H -3.69709e+01 -2.32821e+01 -1.67376e+01             
       H -3.65084e+01 -2.35039e+01 -1.84610e+01             
       H -3.83631e+01 -2.23765e+01 -1.89020e+01             
12                                                          
# CELL(abcABC):  100.00000   100.00000   100.00000    90.00000    90.00000    90.00000  Step:      300000  Bead:       0 positions{angstrom}  cell{angstrom}    
       C -8.34027e+01 -4.55788e+01 -3.81157e+01             
       C -8.19941e+01 -4.60334e+01 -3.77733e+01             
       O -8.12263e+01 -4.53762e+01 -3.71433e+01             
       N -8.15835e+01 -4.73001e+01 -3.83447e+01             
       C -8.02985e+01 -4.78256e+01 -3.79771e+01             
       H -8.34674e+01 -4.46624e+01 -3.87312e+01             
       H -8.39125e+01 -4.64575e+01 -3.85497e+01             
       H -8.38904e+01 -4.54120e+01 -3.71285e+01             
       H -7.97787e+01 -4.71550e+01 -3.72983e+01             
       H -8.04645e+01 -4.88201e+01 -3.75141e+01             
       H -7.95454e+01 -4.79749e+01 -3.87947e+01             
       H -8.22244e+01 -4.78503e+01 -3.88237e+01             
