12                                                          
# CELL(abcABC):  100.00000   100.00000   100.00000    90.00000    90.00000    90.00000  Step:           0  Bead:       0 positions{angstrom}  cell{angstrom}    
       C -1.89121e+01 -1.18549e+01 -7.49114e+00             
       C -1.88647e+01 -1.06266e+01 -8.44101e+00             
       O -1.82887e+01 -9.58663e+00 -8.09726e+00             
       N -1.94754e+01 -1.07205e+01 -9.59811e+00             
       C -1.98232e+01 -9.50693e+00 -1.03445e+01             
       H -1.81300e+01 -1.16323e+01 -6.73934e+00             
       H -1.98372e+01 -1.19476e+01 -6.97360e+00             
       H -1.87235e+01 -1.27868e+01 -8.02254e+00             
       H -2.06137e+01 -9.06698e+00 -9.81513e+00             
       H -1.90882e+01 -8.71835e+00 -1.03305e+01             
       H -1.99780e+01 -9.78348e+00 -1.13763e+01             
       H -1.98764e+01 -1.15944e+01 -9.87767e+00             
12                                                          
# CELL(abcABC):  100.00000   100.00000   100.00000    90.00000    90.00000    90.00000  Step:      300000  Bead:       0 positions{angstrom}  cell{angstrom}    
       C -5.74886e+01 -3.30382e+01 -2.57418e+01             
       C -5.83871e+01 -3.28986e+01 -2.69692e+01             
       O -5.84793e+01 -3.18669e+01 -2.75808e+01             
       N -5.90940e+01 -3.40753e+01 -2.73092e+01             
       C -6.00483e+01 -3.42307e+01 -2.83895e+01             
       H -5.70030e+01 -3.39852e+01 -2.56799e+01             
       H -5.66528e+01 -3.23292e+01 -2.58737e+01             
       H -5.79758e+01 -3.27318e+01 -2.47324e+01             
       H -6.09886e+01 -3.36856e+01 -2.82037e+01             
       H -5.95438e+01 -3.39072e+01 -2.93497e+01             
       H -6.01870e+01 -3.53107e+01 -2.83652e+01             
       H -5.93003e+01 -3.46721e+01 -2.64833e+01             
