12                                                          
# CELL(abcABC):  100.00000   100.00000   100.00000    90.00000    90.00000    90.00000  Step:           0  Bead:       0 positions{angstrom}  cell{angstrom}    
       C -5.15122e+01 -2.95143e+01 -2.37560e+01             
       C -5.06646e+01 -2.83787e+01 -2.32285e+01             
       O -5.10551e+01 -2.73236e+01 -2.27817e+01             
       N -4.93006e+01 -2.86753e+01 -2.32417e+01             
       C -4.82383e+01 -2.76452e+01 -2.30631e+01             
       H -5.14377e+01 -2.94969e+01 -2.48395e+01             
       H -5.12115e+01 -3.05343e+01 -2.34917e+01             
       H -5.25611e+01 -2.92586e+01 -2.35570e+01             
       H -4.72986e+01 -2.80086e+01 -2.34753e+01             
       H -4.84967e+01 -2.67527e+01 -2.35039e+01             
       H -4.81917e+01 -2.74273e+01 -2.20397e+01             
       H -4.90021e+01 -2.95066e+01 -2.37098e+01             
12                                                          
# CELL(abcABC):  100.00000   100.00000   100.00000    90.00000    90.00000    90.00000  Step:      300000  Bead:       0 positions{angstrom}  cell{angstrom}    
       C -1.02788e+02 -5.87574e+01 -4.69482e+01             
       C -1.01713e+02 -5.77214e+01 -4.70672e+01             
       O -1.01869e+02 -5.67306e+01 -4.77838e+01             
       N -1.00505e+02 -5.79461e+01 -4.62975e+01             
       C -9.93262e+01 -5.71864e+01 -4.65962e+01             
       H -1.02398e+02 -5.96477e+01 -4.64217e+01             
       H -1.03549e+02 -5.83739e+01 -4.62504e+01             
       H -1.03199e+02 -5.90052e+01 -4.79623e+01             
       H -9.96025e+01 -5.62082e+01 -4.69961e+01             
       H -9.87999e+01 -5.70585e+01 -4.57174e+01             
       H -9.87269e+01 -5.75584e+01 -4.74655e+01             
       H -1.00559e+02 -5.87765e+01 -4.57055e+01             
