12                                                          
# CELL(abcABC):  100.00000   100.00000   100.00000    90.00000    90.00000    90.00000  Step:           0  Bead:       0 positions{angstrom}  cell{angstrom}    
       C -3.74262e+01 -1.90733e+01 -1.74207e+01             
       C -3.73165e+01 -2.05641e+01 -1.71304e+01             
       O -3.68429e+01 -2.09253e+01 -1.60358e+01             
       N -3.77884e+01 -2.14478e+01 -1.80477e+01             
       C -3.76932e+01 -2.28938e+01 -1.78950e+01             
       H -3.84151e+01 -1.85305e+01 -1.72342e+01             
       H -3.66240e+01 -1.85717e+01 -1.68639e+01             
       H -3.72561e+01 -1.87144e+01 -1.84999e+01             
       H -3.72249e+01 -2.32472e+01 -1.69720e+01             
       H -3.86940e+01 -2.32899e+01 -1.78779e+01             
       H -3.70902e+01 -2.32536e+01 -1.87490e+01             
       H -3.81319e+01 -2.11023e+01 -1.89573e+01             
12                                                          
# CELL(abcABC):  100.00000   100.00000   100.00000    90.00000    90.00000    90.00000  Step:      300000  Bead:       0 positions{angstrom}  cell{angstrom}    
       C -8.49291e+01 -4.77472e+01 -3.89290e+01             
       C -8.56126e+01 -4.86707e+01 -3.98997e+01             
       O -8.49225e+01 -4.92070e+01 -4.07282e+01             
       N -8.69590e+01 -4.88641e+01 -3.97316e+01             
       C -8.76770e+01 -5.00948e+01 -4.01532e+01             
       H -8.44651e+01 -4.83792e+01 -3.81413e+01             
       H -8.42012e+01 -4.70737e+01 -3.93486e+01             
       H -8.55523e+01 -4.69915e+01 -3.83654e+01             
       H -8.85464e+01 -4.98345e+01 -4.07115e+01             
       H -8.69876e+01 -5.07427e+01 -4.06860e+01             
       H -8.77777e+01 -5.07626e+01 -3.92846e+01             
       H -8.74343e+01 -4.83219e+01 -3.90685e+01             
