12                                                          
# CELL(abcABC):  100.00000   100.00000   100.00000    90.00000    90.00000    90.00000  Step:           0  Bead:       0 positions{angstrom}  cell{angstrom}    
       C -4.61081e+01 -2.67166e+01 -2.13114e+01             
       C -4.73765e+01 -2.71226e+01 -2.20719e+01             
       O -4.74131e+01 -2.81831e+01 -2.27263e+01             
       N -4.85004e+01 -2.63138e+01 -2.19353e+01             
       C -4.97051e+01 -2.65612e+01 -2.26913e+01             
       H -4.52542e+01 -2.74014e+01 -2.15155e+01             
       H -4.58015e+01 -2.56784e+01 -2.15152e+01             
       H -4.62522e+01 -2.68177e+01 -2.02208e+01             
       H -5.06079e+01 -2.66056e+01 -2.20344e+01             
       H -4.99604e+01 -2.57112e+01 -2.34751e+01             
       H -4.96053e+01 -2.74393e+01 -2.32785e+01             
       H -4.84469e+01 -2.55734e+01 -2.12836e+01             
12                                                          
# CELL(abcABC):  100.00000   100.00000   100.00000    90.00000    90.00000    90.00000  Step:      300000  Bead:       0 positions{angstrom}  cell{angstrom}    
       C -1.07094e+02 -6.21478e+01 -5.01332e+01             
       C -1.06602e+02 -6.08049e+01 -4.96118e+01             
       O -1.06970e+02 -5.97230e+01 -5.01264e+01             
       N -1.05658e+02 -6.08043e+01 -4.86393e+01             
       C -1.05314e+02 -5.95474e+01 -4.80604e+01             
       H -1.06765e+02 -6.20263e+01 -5.11805e+01             
       H -1.06767e+02 -6.30141e+01 -4.96034e+01             
       H -1.08210e+02 -6.21751e+01 -5.02127e+01             
       H -1.04615e+02 -5.97388e+01 -4.71752e+01             
       H -1.04742e+02 -5.89408e+01 -4.87812e+01             
       H -1.06056e+02 -5.89572e+01 -4.75782e+01             
       H -1.05689e+02 -6.16648e+01 -4.80870e+01             
