12                                                          
# CELL(abcABC):  100.00000   100.00000   100.00000    90.00000    90.00000    90.00000  Step:           0  Bead:       0 positions{angstrom}  cell{angstrom}    
       C -3.27731e+01 -1.85598e+01 -1.52651e+01             
       C -3.17759e+01 -1.76526e+01 -1.45414e+01             
       O -3.22373e+01 -1.68326e+01 -1.36984e+01             
       N -3.04692e+01 -1.77584e+01 -1.47945e+01             
       C -2.95824e+01 -1.67777e+01 -1.42119e+01             
       H -3.33245e+01 -1.90687e+01 -1.44917e+01             
       H -3.35749e+01 -1.80225e+01 -1.57740e+01             
       H -3.23363e+01 -1.92966e+01 -1.59157e+01             
       H -2.89660e+01 -1.72888e+01 -1.34475e+01             
       H -2.88658e+01 -1.64691e+01 -1.50280e+01             
       H -3.01901e+01 -1.60006e+01 -1.38413e+01             
       H -3.02041e+01 -1.82327e+01 -1.56235e+01             
12                                                          
# CELL(abcABC):  100.00000   100.00000   100.00000    90.00000    90.00000    90.00000  Step:      300000  Bead:       0 positions{angstrom}  cell{angstrom}    
       C -7.34192e+01 -4.00362e+01 -3.45493e+01             
       C -7.24202e+01 -4.09411e+01 -3.38867e+01             
       O -7.22029e+01 -4.20751e+01 -3.42879e+01             
       N -7.18713e+01 -4.04234e+01 -3.27136e+01             
       C -7.09906e+01 -4.13359e+01 -3.19179e+01             
       H -7.31260e+01 -3.89654e+01 -3.44599e+01             
       H -7.35382e+01 -4.02810e+01 -3.55737e+01             
       H -7.43977e+01 -4.01839e+01 -3.40013e+01             
       H -7.07625e+01 -4.22393e+01 -3.24670e+01             
       H -7.00568e+01 -4.08422e+01 -3.16174e+01             
       H -7.15674e+01 -4.17172e+01 -3.10075e+01             
       H -7.23978e+01 -3.97936e+01 -3.21640e+01             
