12                                                          
# CELL(abcABC):  100.00000   100.00000   100.00000    90.00000    90.00000    90.00000  Step:           0  Bead:       0 positions{angstrom}  cell{angstrom}    
       C -1.60882e+01 -7.16061e+00 -6.75722e+00             
       C -1.63022e+01 -8.61135e+00 -7.08732e+00             
       O -1.64688e+01 -9.47841e+00 -6.24392e+00             
       N -1.62982e+01 -8.82699e+00 -8.44985e+00             
       C -1.64204e+01 -1.02160e+01 -9.01014e+00             
       H -1.65800e+01 -6.60821e+00 -7.57120e+00             
       H -1.66314e+01 -6.74055e+00 -5.87953e+00             
       H -1.50022e+01 -6.90687e+00 -6.53523e+00             
       H -1.57108e+01 -1.03549e+01 -9.82185e+00             
       H -1.62268e+01 -1.09417e+01 -8.18944e+00             
       H -1.74491e+01 -1.04732e+01 -9.31659e+00             
       H -1.63519e+01 -8.05154e+00 -9.09005e+00             
12                                                          
# CELL(abcABC):  100.00000   100.00000   100.00000    90.00000    90.00000    90.00000  Step:      300000  Bead:       0 positions{angstrom}  cell{angstrom}    
       C -5.35117e+01 -2.86175e+01 -2.31301e+01             
       C -5.32054e+01 -2.97123e+01 -2.41472e+01             
       O -5.38558e+01 -3.07547e+01 -2.43311e+01             
       N -5.20246e+01 -2.95792e+01 -2.47855e+01             
       C -5.13870e+01 -3.04206e+01 -2.58217e+01             
       H -5.29864e+01 -2.87567e+01 -2.21829e+01             
       H -5.31514e+01 -2.76602e+01 -2.34860e+01             
       H -5.45905e+01 -2.87082e+01 -2.29111e+01             
       H -5.10803e+01 -3.13690e+01 -2.53352e+01             
       H -5.21033e+01 -3.07698e+01 -2.65979e+01             
       H -5.05326e+01 -2.98364e+01 -2.62363e+01             
       H -5.15188e+01 -2.87474e+01 -2.44479e+01             
