12                                                          
# CELL(abcABC):  100.00000   100.00000   100.00000    90.00000    90.00000    90.00000  Step:           0  Bead:       0 positions{angstrom}  cell{angstrom}    
       C -5.35527e+01 -3.24136e+01 -2.57708e+01             
       C -5.46831e+01 -3.14596e+01 -2.53839e+01             
       O -5.58107e+01 -3.18115e+01 -2.49773e+01             
       N -5.43899e+01 -3.01098e+01 -2.54940e+01             
       C -5.55096e+01 -2.91539e+01 -2.52643e+01             
       H -5.36903e+01 -3.34472e+01 -2.54352e+01             
       H -5.34564e+01 -3.24485e+01 -2.69087e+01             
       H -5.26405e+01 -3.21241e+01 -2.52922e+01             
       H -5.54694e+01 -2.85193e+01 -2.44269e+01             
       H -5.54154e+01 -2.84512e+01 -2.60647e+01             
       H -5.64442e+01 -2.97028e+01 -2.51940e+01             
       H -5.35347e+01 -2.98588e+01 -2.59160e+01             
12                                                          
# CELL(abcABC):  100.00000   100.00000   100.00000    90.00000    90.00000    90.00000  Step:      300000  Bead:       0 positions{angstrom}  cell{angstrom}    
       C -1.04367e+02 -5.92433e+01 -4.77834e+01             
       C -1.03027e+02 -5.84357e+01 -4.78361e+01             
       O -1.02832e+02 -5.74666e+01 -4.85188e+01             
       N -1.02077e+02 -5.89202e+01 -4.69735e+01             
       C -1.00836e+02 -5.82529e+01 -4.68347e+01             
       H -1.05113e+02 -5.84854e+01 -4.74576e+01             
       H -1.04657e+02 -5.95019e+01 -4.87962e+01             
       H -1.04316e+02 -6.00695e+01 -4.70742e+01             
       H -1.00931e+02 -5.71408e+01 -4.66961e+01             
       H -1.00276e+02 -5.87830e+01 -4.60546e+01             
       H -1.00192e+02 -5.84713e+01 -4.76801e+01             
       H -1.02335e+02 -5.97506e+01 -4.64336e+01             
