12                                                          
# CELL(abcABC):  100.00000   100.00000   100.00000    90.00000    90.00000    90.00000  Step:           0  Bead:       0 positions{angstrom}  cell{angstrom}    
       C -1.91984e+01 -1.02906e+01 -7.02832e+00             
       C -1.82480e+01 -9.92789e+00 -8.15436e+00             
       O -1.85795e+01 -9.66299e+00 -9.31669e+00             
       N -1.69193e+01 -9.67315e+00 -7.78388e+00             
       C -1.59429e+01 -9.00130e+00 -8.67067e+00             
       H -1.88342e+01 -1.07920e+01 -6.08607e+00             
       H -1.94599e+01 -9.23589e+00 -6.69748e+00             
       H -2.01396e+01 -1.07731e+01 -7.34757e+00             
       H -1.64135e+01 -8.09758e+00 -9.09084e+00             
       H -1.50444e+01 -8.65533e+00 -8.06286e+00             
       H -1.55735e+01 -9.63849e+00 -9.50519e+00             
       H -1.66213e+01 -9.93430e+00 -6.86020e+00             
12                                                          
# CELL(abcABC):  100.00000   100.00000   100.00000    90.00000    90.00000    90.00000  Step:      300000  Bead:       0 positions{angstrom}  cell{angstrom}    
       C -5.76566e+01 -3.34603e+01 -2.67454e+01             
       C -5.90921e+01 -3.32949e+01 -2.72291e+01             
       O -5.98986e+01 -3.25414e+01 -2.66662e+01             
       N -5.94175e+01 -3.41667e+01 -2.82485e+01             
       C -6.07520e+01 -3.45279e+01 -2.86571e+01             
       H -5.76055e+01 -3.42600e+01 -2.60714e+01             
       H -5.68120e+01 -3.35574e+01 -2.73776e+01             
       H -5.74257e+01 -3.25535e+01 -2.60982e+01             
       H -6.07812e+01 -3.48948e+01 -2.96699e+01             
       H -6.12553e+01 -3.52383e+01 -2.79550e+01             
       H -6.12719e+01 -3.35686e+01 -2.86003e+01             
       H -5.86230e+01 -3.48232e+01 -2.83755e+01             
