12                                                          
# CELL(abcABC):  100.00000   100.00000   100.00000    90.00000    90.00000    90.00000  Step:           0  Bead:       0 positions{angstrom}  cell{angstrom}    
       C -4.31540e+01 -2.55266e+01 -2.08705e+01             
       C -4.30558e+01 -2.43951e+01 -1.98598e+01             
       O -4.40336e+01 -2.39080e+01 -1.93328e+01             
       N -4.17855e+01 -2.39047e+01 -1.96839e+01             
       C -4.16140e+01 -2.25562e+01 -1.91139e+01             
       H -4.41281e+01 -2.59508e+01 -2.08174e+01             
       H -4.31349e+01 -2.50191e+01 -2.18466e+01             
       H -4.22919e+01 -2.61709e+01 -2.07997e+01             
       H -4.17273e+01 -2.25791e+01 -1.80504e+01             
       H -4.06538e+01 -2.21727e+01 -1.94224e+01             
       H -4.23711e+01 -2.17741e+01 -1.94601e+01             
       H -4.10469e+01 -2.42858e+01 -2.02543e+01             
12                                                          
# CELL(abcABC):  100.00000   100.00000   100.00000    90.00000    90.00000    90.00000  Step:      300000  Bead:       0 positions{angstrom}  cell{angstrom}    
       C -9.26736e+01 -5.10061e+01 -4.23683e+01             
       C -9.12002e+01 -5.13274e+01 -4.20995e+01             
       O -9.03785e+01 -5.04930e+01 -4.17297e+01             
       N -9.07731e+01 -5.26000e+01 -4.23695e+01             
       C -8.93695e+01 -5.30861e+01 -4.20972e+01             
       H -9.32504e+01 -5.13253e+01 -4.14220e+01             
       H -9.27688e+01 -4.99208e+01 -4.24727e+01             
       H -9.31198e+01 -5.15824e+01 -4.31626e+01             
       H -8.91904e+01 -5.40444e+01 -4.25630e+01             
       H -8.87127e+01 -5.23325e+01 -4.25696e+01             
       H -8.92300e+01 -5.31099e+01 -4.10046e+01             
       H -9.14486e+01 -5.33020e+01 -4.26427e+01             
