12                                                          
# CELL(abcABC):  100.00000   100.00000   100.00000    90.00000    90.00000    90.00000  Step:           0  Bead:       0 positions{angstrom}  cell{angstrom}    
       C -1.18102e+01 -5.40830e+00 -3.53085e+00             
       C -1.08728e+01 -5.49106e+00 -4.67328e+00             
       O -1.12503e+01 -5.50604e+00 -5.86900e+00             
       N -9.47291e+00 -5.44820e+00 -4.35232e+00             
       C -8.49155e+00 -5.40353e+00 -5.31675e+00             
       H -1.14619e+01 -4.74324e+00 -2.77168e+00             
       H -1.27292e+01 -4.98821e+00 -3.85666e+00             
       H -1.20447e+01 -6.43871e+00 -3.18560e+00             
       H -9.00300e+00 -5.25052e+00 -6.27869e+00             
       H -7.76970e+00 -4.47503e+00 -5.24192e+00             
       H -7.82955e+00 -6.24874e+00 -5.40195e+00             
       H -9.30029e+00 -5.26384e+00 -3.38571e+00             
12                                                          
# CELL(abcABC):  100.00000   100.00000   100.00000    90.00000    90.00000    90.00000  Step:      300000  Bead:       0 positions{angstrom}  cell{angstrom}    
       C -4.09917e+01 -2.33104e+01 -1.69652e+01             
       C -4.02311e+01 -2.26153e+01 -1.81072e+01             
       O -3.90806e+01 -2.21969e+01 -1.79452e+01             
       N -4.06826e+01 -2.26224e+01 -1.93962e+01             
       C -3.98467e+01 -2.20997e+01 -2.04523e+01             
       H -4.12283e+01 -2.43143e+01 -1.72610e+01             
       H -4.03579e+01 -2.32179e+01 -1.60705e+01             
       H -4.19469e+01 -2.27235e+01 -1.67992e+01             
       H -3.94040e+01 -2.11961e+01 -2.00060e+01             
       H -3.90724e+01 -2.28470e+01 -2.07717e+01             
       H -4.05602e+01 -2.18537e+01 -2.13609e+01             
       H -4.15026e+01 -2.30989e+01 -1.96469e+01             
