12                                                          
# CELL(abcABC):  100.00000   100.00000   100.00000    90.00000    90.00000    90.00000  Step:           0  Bead:       0 positions{angstrom}  cell{angstrom}    
       C -1.71077e+01 -7.32545e+00 -7.01969e+00             
       C -1.65960e+01 -8.64279e+00 -7.25354e+00             
       O -1.61263e+01 -9.32738e+00 -6.36738e+00             
       N -1.67588e+01 -9.17837e+00 -8.48853e+00             
       C -1.60284e+01 -1.03811e+01 -8.87478e+00             
       H -1.76478e+01 -6.95942e+00 -7.87553e+00             
       H -1.77868e+01 -7.38869e+00 -6.16788e+00             
       H -1.63680e+01 -6.53714e+00 -6.88804e+00             
       H -1.65464e+01 -1.08173e+01 -9.72093e+00             
       H -1.50477e+01 -1.01485e+01 -9.24139e+00             
       H -1.60744e+01 -1.11865e+01 -8.10271e+00             
       H -1.72436e+01 -8.69872e+00 -9.24145e+00             
12                                                          
# CELL(abcABC):  100.00000   100.00000   100.00000    90.00000    90.00000    90.00000  Step:      300000  Bead:       0 positions{angstrom}  cell{angstrom}    
       C -5.28674e+01 -2.91544e+01 -2.40026e+01             
       C -5.39029e+01 -3.00116e+01 -2.47623e+01             
       O -5.49820e+01 -2.95949e+01 -2.51146e+01             
       N -5.34316e+01 -3.13080e+01 -2.50214e+01             
       C -5.42755e+01 -3.21823e+01 -2.58408e+01             
       H -5.19230e+01 -2.96914e+01 -2.39701e+01             
       H -5.26105e+01 -2.82390e+01 -2.45944e+01             
       H -5.31709e+01 -2.89265e+01 -2.29794e+01             
       H -5.46599e+01 -3.30117e+01 -2.51948e+01             
       H -5.51621e+01 -3.17039e+01 -2.62175e+01             
       H -5.36958e+01 -3.24846e+01 -2.67534e+01             
       H -5.24397e+01 -3.13175e+01 -2.50629e+01             
