12                                                          
# CELL(abcABC):  100.00000   100.00000   100.00000    90.00000    90.00000    90.00000  Step:           0  Bead:       0 positions{angstrom}  cell{angstrom}    
       C -3.11933e+01 -1.53719e+01 -1.47944e+01             
       C -3.07132e+01 -1.65913e+01 -1.39965e+01             
       O -3.08967e+01 -1.67359e+01 -1.28143e+01             
       N -2.99857e+01 -1.75371e+01 -1.47787e+01             
       C -2.98302e+01 -1.88664e+01 -1.41758e+01             
       H -3.22880e+01 -1.53661e+01 -1.49231e+01             
       H -3.09906e+01 -1.44962e+01 -1.41645e+01             
       H -3.08044e+01 -1.51976e+01 -1.58550e+01             
       H -2.94936e+01 -1.87375e+01 -1.31773e+01             
       H -3.07657e+01 -1.94186e+01 -1.40859e+01             
       H -2.90296e+01 -1.93604e+01 -1.47904e+01             
       H -3.00833e+01 -1.73639e+01 -1.58065e+01             
12                                                          
# CELL(abcABC):  100.00000   100.00000   100.00000    90.00000    90.00000    90.00000  Step:      300000  Bead:       0 positions{angstrom}  cell{angstrom}    
       C -8.34196e+01 -4.76927e+01 -3.80341e+01             
       C -8.23233e+01 -4.66544e+01 -3.80723e+01             
       O -8.25269e+01 -4.54824e+01 -3.84429e+01             
       N -8.10758e+01 -4.69497e+01 -3.75728e+01             
       C -8.00351e+01 -4.59375e+01 -3.76217e+01             
       H -8.37097e+01 -4.80448e+01 -3.90845e+01             
       H -8.31730e+01 -4.86048e+01 -3.74493e+01             
       H -8.41691e+01 -4.71557e+01 -3.74760e+01             
       H -7.91328e+01 -4.64012e+01 -3.72202e+01             
       H -7.99652e+01 -4.55090e+01 -3.86691e+01             
       H -8.03224e+01 -4.50310e+01 -3.70850e+01             
       H -8.08534e+01 -4.79317e+01 -3.74497e+01             
