12                                                          
# CELL(abcABC):  100.00000   100.00000   100.00000    90.00000    90.00000    90.00000  Step:           0  Bead:       0 positions{angstrom}  cell{angstrom}    
       C -1.46786e+01 -6.34362e+00 -5.18086e+00             
       C -1.33710e+01 -6.65890e+00 -5.77385e+00             
       O -1.22780e+01 -6.21762e+00 -5.51842e+00             
       N -1.34641e+01 -7.82119e+00 -6.59524e+00             
       C -1.23127e+01 -8.31935e+00 -7.27645e+00             
       H -1.53454e+01 -7.15628e+00 -5.39158e+00             
       H -1.45653e+01 -6.17915e+00 -4.11132e+00             
       H -1.49785e+01 -5.39957e+00 -5.59446e+00             
       H -1.24158e+01 -8.16891e+00 -8.34481e+00             
       H -1.15382e+01 -7.75467e+00 -6.82692e+00             
       H -1.22038e+01 -9.35993e+00 -7.04525e+00             
       H -1.43843e+01 -8.02397e+00 -6.96725e+00             
12                                                          
# CELL(abcABC):  100.00000   100.00000   100.00000    90.00000    90.00000    90.00000  Step:      300000  Bead:       0 positions{angstrom}  cell{angstrom}    
       C -4.34973e+01 -2.44350e+01 -1.80577e+01             
       C -4.28290e+01 -2.42883e+01 -1.94444e+01             
       O -4.26204e+01 -2.52419e+01 -2.01789e+01             
       N -4.22728e+01 -2.31013e+01 -1.97254e+01             
       C -4.18374e+01 -2.28401e+01 -2.11571e+01             
       H -4.26884e+01 -2.44557e+01 -1.72927e+01             
       H -4.41253e+01 -2.35994e+01 -1.77801e+01             
       H -4.40726e+01 -2.53415e+01 -1.81013e+01             
       H -4.11161e+01 -2.35999e+01 -2.15133e+01             
       H -4.27202e+01 -2.29516e+01 -2.17611e+01             
       H -4.13288e+01 -2.18781e+01 -2.12383e+01             
       H -4.28706e+01 -2.24026e+01 -1.93397e+01             
