12                                                          
# CELL(abcABC):  100.00000   100.00000   100.00000    90.00000    90.00000    90.00000  Step:           0  Bead:       0 positions{angstrom}  cell{angstrom}    
       C -2.23759e+01 -1.05291e+01 -9.33119e+00             
       C -2.09344e+01 -1.10803e+01 -9.28801e+00             
       O -2.01321e+01 -1.06710e+01 -8.46996e+00             
       N -2.06145e+01 -1.20839e+01 -1.02066e+01             
       C -1.92344e+01 -1.24017e+01 -1.03421e+01             
       H -2.29410e+01 -1.05349e+01 -1.02130e+01             
       H -2.29114e+01 -1.09213e+01 -8.42164e+00             
       H -2.22665e+01 -9.42925e+00 -9.08994e+00             
       H -1.90220e+01 -1.34463e+01 -1.01053e+01             
       H -1.89048e+01 -1.22329e+01 -1.13592e+01             
       H -1.86320e+01 -1.18287e+01 -9.65008e+00             
       H -2.13945e+01 -1.23040e+01 -1.07842e+01             
12                                                          
# CELL(abcABC):  100.00000   100.00000   100.00000    90.00000    90.00000    90.00000  Step:      300000  Bead:       0 positions{angstrom}  cell{angstrom}    
       C -6.87026e+01 -4.06109e+01 -3.17287e+01             
       C -6.99044e+01 -3.97539e+01 -3.23402e+01             
       O -6.97927e+01 -3.85794e+01 -3.25135e+01             
       N -7.09362e+01 -4.05110e+01 -3.28085e+01             
       C -7.21269e+01 -3.99713e+01 -3.34795e+01             
       H -6.90640e+01 -4.16171e+01 -3.15131e+01             
       H -6.78950e+01 -4.07136e+01 -3.24919e+01             
       H -6.83046e+01 -4.00699e+01 -3.08888e+01             
       H -7.28575e+01 -4.08091e+01 -3.34595e+01             
       H -7.25469e+01 -3.90744e+01 -3.29806e+01             
       H -7.18249e+01 -3.97697e+01 -3.45009e+01             
       H -7.09935e+01 -4.14789e+01 -3.24772e+01             
