12                                                          
# CELL(abcABC):  100.00000   100.00000   100.00000    90.00000    90.00000    90.00000  Step:           0  Bead:       0 positions{angstrom}  cell{angstrom}    
       C -3.88621e+01 -2.36223e+01 -1.74111e+01             
       C -3.95862e+01 -2.28048e+01 -1.83656e+01             
       O -3.96460e+01 -2.30615e+01 -1.95694e+01             
       N -4.02116e+01 -2.16726e+01 -1.78474e+01             
       C -4.04406e+01 -2.05455e+01 -1.87656e+01             
       H -3.83152e+01 -2.44045e+01 -1.79946e+01             
       H -3.80734e+01 -2.31139e+01 -1.68788e+01             
       H -3.95190e+01 -2.40348e+01 -1.66006e+01             
       H -3.97217e+01 -2.06480e+01 -1.95468e+01             
       H -4.14599e+01 -2.06197e+01 -1.91700e+01             
       H -4.02821e+01 -1.96048e+01 -1.82719e+01             
       H -4.00321e+01 -2.14779e+01 -1.68795e+01             
12                                                          
# CELL(abcABC):  100.00000   100.00000   100.00000    90.00000    90.00000    90.00000  Step:      300000  Bead:       0 positions{angstrom}  cell{angstrom}    
       C -8.93707e+01 -4.94273e+01 -3.95870e+01             
       C -8.86039e+01 -4.98703e+01 -4.08764e+01             
       O -8.84902e+01 -4.91548e+01 -4.18275e+01             
       N -8.81144e+01 -5.11352e+01 -4.07635e+01             
       C -8.74671e+01 -5.18341e+01 -4.18453e+01             
       H -9.04765e+01 -4.95711e+01 -3.96783e+01             
       H -8.90917e+01 -4.99872e+01 -3.87241e+01             
       H -8.90147e+01 -4.83758e+01 -3.94306e+01             
       H -8.78755e+01 -5.28408e+01 -4.20064e+01             
       H -8.75938e+01 -5.12983e+01 -4.27848e+01             
       H -8.63098e+01 -5.17788e+01 -4.17447e+01             
       H -8.81782e+01 -5.15315e+01 -3.98260e+01             
