12                                                          
# CELL(abcABC):  100.00000   100.00000   100.00000    90.00000    90.00000    90.00000  Step:           0  Bead:       0 positions{angstrom}  cell{angstrom}    
       C -2.66081e+01 -1.55024e+01 -1.11291e+01             
       C -2.55411e+01 -1.45070e+01 -1.15793e+01             
       O -2.43822e+01 -1.49109e+01 -1.15548e+01             
       N -2.58847e+01 -1.32550e+01 -1.20260e+01             
       C -2.47916e+01 -1.23758e+01 -1.24519e+01             
       H -2.76010e+01 -1.51906e+01 -1.13598e+01             
       H -2.63842e+01 -1.64853e+01 -1.15768e+01             
       H -2.65212e+01 -1.55318e+01 -1.00393e+01             
       H -2.50602e+01 -1.17294e+01 -1.33000e+01             
       H -2.44113e+01 -1.18694e+01 -1.15505e+01             
       H -2.39518e+01 -1.30219e+01 -1.27961e+01             
       H -2.68276e+01 -1.28973e+01 -1.19454e+01             
12                                                          
# CELL(abcABC):  100.00000   100.00000   100.00000    90.00000    90.00000    90.00000  Step:      300000  Bead:       0 positions{angstrom}  cell{angstrom}    
       C -8.65280e+01 -4.89638e+01 -3.91366e+01             
       C -8.51555e+01 -4.84013e+01 -3.95248e+01             
       O -8.45764e+01 -4.85601e+01 -4.05743e+01             
       N -8.43955e+01 -4.78353e+01 -3.84816e+01             
       C -8.31188e+01 -4.72178e+01 -3.87252e+01             
       H -8.63562e+01 -5.00815e+01 -3.91969e+01             
       H -8.68063e+01 -4.85848e+01 -3.81328e+01             
       H -8.72259e+01 -4.86487e+01 -3.98989e+01             
       H -8.29743e+01 -4.63560e+01 -3.81381e+01             
       H -8.23042e+01 -4.79466e+01 -3.84864e+01             
       H -8.31817e+01 -4.68920e+01 -3.97675e+01             
       H -8.48435e+01 -4.76597e+01 -3.75985e+01             
