12                                                          
# CELL(abcABC):  100.00000   100.00000   100.00000    90.00000    90.00000    90.00000  Step:           0  Bead:       0 positions{angstrom}  cell{angstrom}    
       C -3.19270e+01 -1.83558e+01 -1.37356e+01             
       C -3.25320e+01 -1.85726e+01 -1.51000e+01             
       O -3.19728e+01 -1.92041e+01 -1.60124e+01             
       N -3.37726e+01 -1.78896e+01 -1.52110e+01             
       C -3.47354e+01 -1.82128e+01 -1.62628e+01             
       H -3.20383e+01 -1.92943e+01 -1.31974e+01             
       H -3.08616e+01 -1.82242e+01 -1.38694e+01             
       H -3.23387e+01 -1.75813e+01 -1.30508e+01             
       H -3.56971e+01 -1.85850e+01 -1.57004e+01             
       H -3.49718e+01 -1.72755e+01 -1.68789e+01             
       H -3.42236e+01 -1.89836e+01 -1.68644e+01             
       H -3.40583e+01 -1.75939e+01 -1.43094e+01             
12                                                          
# CELL(abcABC):  100.00000   100.00000   100.00000    90.00000    90.00000    90.00000  Step:      300000  Bead:       0 positions{angstrom}  cell{angstrom}    
       C -8.37246e+01 -4.68450e+01 -3.83349e+01             
       C -8.21809e+01 -4.66858e+01 -3.82448e+01             
       O -8.15451e+01 -4.70592e+01 -3.91831e+01             
       N -8.17133e+01 -4.60225e+01 -3.71156e+01             
       C -8.02658e+01 -4.60688e+01 -3.69370e+01             
       H -8.39949e+01 -4.78046e+01 -3.88197e+01             
       H -8.41487e+01 -4.69700e+01 -3.73198e+01             
       H -8.41512e+01 -4.60903e+01 -3.89837e+01             
       H -7.99193e+01 -4.52881e+01 -3.62853e+01             
       H -8.00776e+01 -4.70355e+01 -3.64245e+01             
       H -7.97247e+01 -4.59818e+01 -3.78813e+01             
       H -8.22505e+01 -4.60441e+01 -3.62751e+01             
