12                                                          
# CELL(abcABC):  100.00000   100.00000   100.00000    90.00000    90.00000    90.00000  Step:           0  Bead:       0 positions{angstrom}  cell{angstrom}    
       C -1.16424e+01 -5.26924e+00 -3.42933e+00             
       C -1.06606e+01 -5.20599e+00 -4.58726e+00             
       O -1.09859e+01 -4.76455e+00 -5.70421e+00             
       N -9.45682e+00 -5.76967e+00 -4.34182e+00             
       C -8.35978e+00 -5.77025e+00 -5.35014e+00             
       H -1.11080e+01 -5.37062e+00 -2.46966e+00             
       H -1.22383e+01 -4.37939e+00 -3.39505e+00             
       H -1.23981e+01 -6.07231e+00 -3.48871e+00             
       H -7.74541e+00 -4.90902e+00 -5.13757e+00             
       H -7.78473e+00 -6.67695e+00 -5.31696e+00             
       H -8.78127e+00 -5.61737e+00 -6.31414e+00             
       H -9.29145e+00 -5.86921e+00 -3.34756e+00             
12                                                          
# CELL(abcABC):  100.00000   100.00000   100.00000    90.00000    90.00000    90.00000  Step:      300000  Bead:       0 positions{angstrom}  cell{angstrom}    
       C -3.30707e+01 -1.65515e+01 -1.55527e+01             
       C -3.19218e+01 -1.73935e+01 -1.50230e+01             
       O -3.07890e+01 -1.69523e+01 -1.49348e+01             
       N -3.22902e+01 -1.86176e+01 -1.44933e+01             
       C -3.14124e+01 -1.95311e+01 -1.37545e+01             
       H -3.30297e+01 -1.55391e+01 -1.51072e+01             
       H -3.28996e+01 -1.63658e+01 -1.65791e+01             
       H -3.40542e+01 -1.70802e+01 -1.55375e+01             
       H -3.17902e+01 -1.96639e+01 -1.27067e+01             
       H -3.12751e+01 -2.04185e+01 -1.43663e+01             
       H -3.04202e+01 -1.90539e+01 -1.38427e+01             
       H -3.32430e+01 -1.88542e+01 -1.47717e+01             
