12                                                          
# CELL(abcABC):  100.00000   100.00000   100.00000    90.00000    90.00000    90.00000  Step:           0  Bead:       0 positions{angstrom}  cell{angstrom}    
       C -2.85886e+01 -1.77947e+01 -1.39310e+01             
       C -2.88642e+01 -1.64564e+01 -1.31697e+01             
       O -2.91506e+01 -1.64857e+01 -1.19833e+01             
       N -2.85832e+01 -1.53349e+01 -1.39236e+01             
       C -2.85135e+01 -1.39658e+01 -1.33841e+01             
       H -2.76284e+01 -1.81096e+01 -1.36624e+01             
       H -2.93817e+01 -1.84809e+01 -1.36701e+01             
       H -2.84785e+01 -1.76168e+01 -1.50142e+01             
       H -2.93698e+01 -1.38495e+01 -1.27235e+01             
       H -2.76067e+01 -1.39651e+01 -1.28181e+01             
       H -2.84858e+01 -1.33761e+01 -1.42929e+01             
       H -2.83969e+01 -1.54910e+01 -1.48823e+01             
12                                                          
# CELL(abcABC):  100.00000   100.00000   100.00000    90.00000    90.00000    90.00000  Step:      300000  Bead:       0 positions{angstrom}  cell{angstrom}    
       C -9.15451e+01 -5.02140e+01 -4.25058e+01             
       C -9.06455e+01 -5.11684e+01 -4.18540e+01             
       O -9.11023e+01 -5.22301e+01 -4.14584e+01             
       N -8.93032e+01 -5.09315e+01 -4.17625e+01             
       C -8.82851e+01 -5.19711e+01 -4.14213e+01             
       H -9.23317e+01 -4.98331e+01 -4.18043e+01             
       H -9.10056e+01 -4.93063e+01 -4.29317e+01             
       H -9.20569e+01 -5.07137e+01 -4.32886e+01             
       H -8.88203e+01 -5.28734e+01 -4.16921e+01             
       H -8.73869e+01 -5.17630e+01 -4.19535e+01             
       H -8.80590e+01 -5.18945e+01 -4.04056e+01             
       H -8.88892e+01 -5.01100e+01 -4.21355e+01             
