12                                                          
# CELL(abcABC):  100.00000   100.00000   100.00000    90.00000    90.00000    90.00000  Step:           0  Bead:       0 positions{angstrom}  cell{angstrom}    
       C -1.93298e+01 -1.06110e+01 -7.07584e+00             
       C -1.83237e+01 -1.01592e+01 -8.21055e+00             
       O -1.84668e+01 -1.05687e+01 -9.36861e+00             
       N -1.73645e+01 -9.23933e+00 -7.90279e+00             
       C -1.65015e+01 -8.59357e+00 -8.89960e+00             
       H -2.00094e+01 -9.80814e+00 -7.00123e+00             
       H -1.98734e+01 -1.15034e+01 -7.46023e+00             
       H -1.89955e+01 -1.08960e+01 -6.06342e+00             
       H -1.65455e+01 -9.18726e+00 -9.76803e+00             
       H -1.66526e+01 -7.51315e+00 -9.09121e+00             
       H -1.54975e+01 -8.72285e+00 -8.48049e+00             
       H -1.73890e+01 -8.85726e+00 -6.95799e+00             
12                                                          
# CELL(abcABC):  100.00000   100.00000   100.00000    90.00000    90.00000    90.00000  Step:      300000  Bead:       0 positions{angstrom}  cell{angstrom}    
       C -6.10785e+01 -3.56160e+01 -2.74265e+01             
       C -6.00448e+01 -3.44762e+01 -2.76690e+01             
       O -5.88908e+01 -3.45433e+01 -2.73011e+01             
       N -6.05294e+01 -3.33223e+01 -2.82593e+01             
       C -5.97645e+01 -3.21479e+01 -2.84901e+01             
       H -6.21262e+01 -3.52646e+01 -2.75104e+01             
       H -6.08605e+01 -3.65562e+01 -2.79658e+01             
       H -6.09160e+01 -3.59061e+01 -2.63508e+01             
       H -5.95475e+01 -3.14222e+01 -2.76713e+01             
       H -5.89345e+01 -3.24800e+01 -2.90046e+01             
       H -6.03476e+01 -3.15181e+01 -2.92077e+01             
       H -6.15204e+01 -3.32055e+01 -2.81989e+01             
