12                                                          
# CELL(abcABC):  100.00000   100.00000   100.00000    90.00000    90.00000    90.00000  Step:           0  Bead:       0 positions{angstrom}  cell{angstrom}    
       C -2.02977e+01 -9.23642e+00 -8.79122e+00             
       C -2.03056e+01 -1.07838e+01 -8.98829e+00             
       O -2.04125e+01 -1.15554e+01 -8.02280e+00             
       N -1.99876e+01 -1.11899e+01 -1.02068e+01             
       C -1.99263e+01 -1.26289e+01 -1.05364e+01             
       H -1.95229e+01 -9.00845e+00 -8.02259e+00             
       H -2.01137e+01 -8.63496e+00 -9.66039e+00             
       H -2.12794e+01 -8.93352e+00 -8.31724e+00             
       H -2.05394e+01 -1.30986e+01 -9.75697e+00             
       H -2.04285e+01 -1.27629e+01 -1.15053e+01             
       H -1.89158e+01 -1.30060e+01 -1.05551e+01             
       H -1.99309e+01 -1.05475e+01 -1.09844e+01             
12                                                          
# CELL(abcABC):  100.00000   100.00000   100.00000    90.00000    90.00000    90.00000  Step:      300000  Bead:       0 positions{angstrom}  cell{angstrom}    
       C -5.05987e+01 -2.78455e+01 -2.29437e+01             
       C -5.15373e+01 -2.89126e+01 -2.34726e+01             
       O -5.25033e+01 -2.93454e+01 -2.28488e+01             
       N -5.12320e+01 -2.93185e+01 -2.47130e+01             
       C -5.20824e+01 -3.02307e+01 -2.54469e+01             
       H -5.11719e+01 -2.68826e+01 -2.26721e+01             
       H -5.02373e+01 -2.82519e+01 -2.20026e+01             
       H -4.97335e+01 -2.75779e+01 -2.35428e+01             
       H -5.24162e+01 -3.09771e+01 -2.47522e+01             
       H -5.29027e+01 -2.98227e+01 -2.59990e+01             
       H -5.15077e+01 -3.07412e+01 -2.62125e+01             
       H -5.04070e+01 -2.89444e+01 -2.51783e+01             
