12                                                          
# CELL(abcABC):  100.00000   100.00000   100.00000    90.00000    90.00000    90.00000  Step:           0  Bead:       0 positions{angstrom}  cell{angstrom}    
       C -4.01101e+01 -2.12554e+01 -1.82975e+01             
       C -4.03758e+01 -2.26420e+01 -1.87936e+01             
       O -3.95685e+01 -2.32593e+01 -1.94865e+01             
       N -4.16459e+01 -2.31745e+01 -1.84925e+01             
       C -4.21809e+01 -2.42737e+01 -1.92578e+01             
       H -4.04386e+01 -2.06028e+01 -1.91489e+01             
       H -4.06408e+01 -2.09554e+01 -1.74177e+01             
       H -3.90166e+01 -2.10720e+01 -1.81589e+01             
       H -4.25353e+01 -2.39377e+01 -2.02702e+01             
       H -4.13435e+01 -2.49722e+01 -1.95711e+01             
       H -4.29140e+01 -2.48670e+01 -1.86650e+01             
       H -4.23178e+01 -2.26083e+01 -1.79962e+01             
12                                                          
# CELL(abcABC):  100.00000   100.00000   100.00000    90.00000    90.00000    90.00000  Step:      300000  Bead:       0 positions{angstrom}  cell{angstrom}    
       C -8.77100e+01 -4.92058e+01 -3.94532e+01             
       C -8.78713e+01 -5.01073e+01 -4.06960e+01             
       O -8.69878e+01 -5.05688e+01 -4.13415e+01             
       N -8.92307e+01 -5.01998e+01 -4.10334e+01             
       C -8.96389e+01 -5.10603e+01 -4.21452e+01             
       H -8.66871e+01 -4.93389e+01 -3.90438e+01             
       H -8.79895e+01 -4.82124e+01 -3.96607e+01             
       H -8.84382e+01 -4.94849e+01 -3.86704e+01             
       H -8.87635e+01 -5.16297e+01 -4.24591e+01             
       H -9.04447e+01 -5.17399e+01 -4.18130e+01             
       H -9.00900e+01 -5.04607e+01 -4.30006e+01             
       H -8.99133e+01 -4.99854e+01 -4.03368e+01             
