12                                                          
# CELL(abcABC):  100.00000   100.00000   100.00000    90.00000    90.00000    90.00000  Step:           0  Bead:       0 positions{angstrom}  cell{angstrom}    
       C -4.32753e+01 -2.35998e+01 -1.98624e+01             
       C -4.39857e+01 -2.48627e+01 -2.01704e+01             
       O -4.37333e+01 -2.59434e+01 -1.97057e+01             
       N -4.50746e+01 -2.46496e+01 -2.10319e+01             
       C -4.55941e+01 -2.57780e+01 -2.18079e+01             
       H -4.38781e+01 -2.29716e+01 -1.92246e+01             
       H -4.24026e+01 -2.38009e+01 -1.92456e+01             
       H -4.30108e+01 -2.29558e+01 -2.07421e+01             
       H -4.51542e+01 -2.67327e+01 -2.14023e+01             
       H -4.67890e+01 -2.58843e+01 -2.17843e+01             
       H -4.53058e+01 -2.56317e+01 -2.28357e+01             
       H -4.52247e+01 -2.37321e+01 -2.14349e+01             
12                                                          
# CELL(abcABC):  100.00000   100.00000   100.00000    90.00000    90.00000    90.00000  Step:      300000  Bead:       0 positions{angstrom}  cell{angstrom}    
       C -9.46687e+01 -5.19374e+01 -4.37466e+01             
       C -9.48729e+01 -5.34660e+01 -4.38663e+01             
       O -9.59779e+01 -5.39029e+01 -4.41664e+01             
       N -9.37542e+01 -5.42485e+01 -4.36707e+01             
       C -9.37721e+01 -5.56646e+01 -4.38570e+01             
       H -9.55653e+01 -5.15483e+01 -4.33160e+01             
       H -9.38325e+01 -5.15852e+01 -4.30741e+01             
       H -9.44631e+01 -5.14262e+01 -4.46670e+01             
       H -9.32875e+01 -5.60395e+01 -4.47805e+01             
       H -9.32567e+01 -5.62986e+01 -4.30551e+01             
       H -9.47988e+01 -5.60960e+01 -4.38848e+01             
       H -9.28415e+01 -5.38242e+01 -4.34970e+01             
