12                                                          
# CELL(abcABC):  100.00000   100.00000   100.00000    90.00000    90.00000    90.00000  Step:           0  Bead:       0 positions{angstrom}  cell{angstrom}    
       C -4.74753e+01 -2.53023e+01 -2.08888e+01             
       C -4.60162e+01 -2.54074e+01 -2.12116e+01             
       O -4.53692e+01 -2.44196e+01 -2.15807e+01             
       N -4.54852e+01 -2.66760e+01 -2.10705e+01             
       C -4.40377e+01 -2.68106e+01 -2.10143e+01             
       H -4.77066e+01 -2.58229e+01 -1.99615e+01             
       H -4.76999e+01 -2.42142e+01 -2.07548e+01             
       H -4.80202e+01 -2.58678e+01 -2.16645e+01             
       H -4.36780e+01 -2.78340e+01 -2.11203e+01             
       H -4.35163e+01 -2.61788e+01 -2.17236e+01             
       H -4.35501e+01 -2.64881e+01 -1.99540e+01             
       H -4.60001e+01 -2.72955e+01 -2.04751e+01             
12                                                          
# CELL(abcABC):  100.00000   100.00000   100.00000    90.00000    90.00000    90.00000  Step:      300000  Bead:       0 positions{angstrom}  cell{angstrom}    
       C -1.04676e+02 -5.75095e+01 -4.79105e+01             
       C -1.03829e+02 -5.87573e+01 -4.80361e+01             
       O -1.04076e+02 -5.96863e+01 -4.88195e+01             
       N -1.02599e+02 -5.86978e+01 -4.73307e+01             
       C -1.01642e+02 -5.97563e+01 -4.74997e+01             
       H -1.05732e+02 -5.77478e+01 -4.80962e+01             
       H -1.04643e+02 -5.69512e+01 -4.69714e+01             
       H -1.04451e+02 -5.68674e+01 -4.87329e+01             
       H -1.02160e+02 -6.05701e+01 -4.80694e+01             
       H -1.00786e+02 -5.95260e+01 -4.81403e+01             
       H -1.01186e+02 -6.01981e+01 -4.65546e+01             
       H -1.02411e+02 -5.78061e+01 -4.68706e+01             
