12                                                          
# CELL(abcABC):  100.00000   100.00000   100.00000    90.00000    90.00000    90.00000  Step:           0  Bead:       0 positions{angstrom}  cell{angstrom}    
       C -3.93931e+01 -2.38919e+01 -1.75976e+01             
       C -3.96094e+01 -2.25576e+01 -1.82731e+01             
       O -3.98919e+01 -2.25134e+01 -1.94689e+01             
       N -3.92689e+01 -2.14467e+01 -1.75284e+01             
       C -3.88384e+01 -2.02518e+01 -1.82625e+01             
       H -3.83758e+01 -2.42177e+01 -1.76193e+01             
       H -3.94766e+01 -2.37357e+01 -1.65216e+01             
       H -4.01550e+01 -2.46609e+01 -1.78162e+01             
       H -3.94086e+01 -2.01990e+01 -1.92292e+01             
       H -3.90221e+01 -1.93596e+01 -1.76345e+01             
       H -3.78423e+01 -2.02195e+01 -1.86121e+01             
       H -3.87214e+01 -2.15907e+01 -1.67027e+01             
12                                                          
# CELL(abcABC):  100.00000   100.00000   100.00000    90.00000    90.00000    90.00000  Step:      300000  Bead:       0 positions{angstrom}  cell{angstrom}    
       C -9.78704e+01 -5.61516e+01 -4.47814e+01             
       C -9.68823e+01 -5.49483e+01 -4.46860e+01             
       O -9.73161e+01 -5.37779e+01 -4.46290e+01             
       N -9.55713e+01 -5.53031e+01 -4.47309e+01             
       C -9.44775e+01 -5.43547e+01 -4.46602e+01             
       H -9.87976e+01 -5.58754e+01 -4.41623e+01             
       H -9.83323e+01 -5.60838e+01 -4.58513e+01             
       H -9.73880e+01 -5.70746e+01 -4.45696e+01             
       H -9.48463e+01 -5.35762e+01 -4.39462e+01             
       H -9.35746e+01 -5.49005e+01 -4.44370e+01             
       H -9.44637e+01 -5.38289e+01 -4.55699e+01             
       H -9.53438e+01 -5.62190e+01 -4.51354e+01             
