12                                                          
# CELL(abcABC):  100.00000   100.00000   100.00000    90.00000    90.00000    90.00000  Step:           0  Bead:       0 positions{angstrom}  cell{angstrom}    
       C -1.05730e+01 -6.73214e+00 -4.46294e+00             
       C -1.19580e+01 -6.59630e+00 -5.09175e+00             
       O -1.29898e+01 -6.44448e+00 -4.44462e+00             
       N -1.18776e+01 -6.38622e+00 -6.42485e+00             
       C -1.30544e+01 -6.04416e+00 -7.28174e+00             
       H -9.83635e+00 -6.90407e+00 -5.29310e+00             
       H -1.02222e+01 -5.69310e+00 -4.15637e+00             
       H -1.04573e+01 -7.45849e+00 -3.67037e+00             
       H -1.28650e+01 -4.95555e+00 -7.56909e+00             
       H -1.30579e+01 -6.71536e+00 -8.15769e+00             
       H -1.39685e+01 -6.18608e+00 -6.70462e+00             
       H -1.10752e+01 -6.78829e+00 -6.87205e+00             
12                                                          
# CELL(abcABC):  100.00000   100.00000   100.00000    90.00000    90.00000    90.00000  Step:      300000  Bead:       0 positions{angstrom}  cell{angstrom}    
       C -4.50005e+01 -2.52792e+01 -2.14720e+01             
       C -4.37902e+01 -2.47838e+01 -2.06817e+01             
       O -4.26394e+01 -2.50060e+01 -2.10289e+01             
       N -4.40124e+01 -2.41537e+01 -1.95109e+01             
       C -4.30304e+01 -2.37959e+01 -1.85032e+01             
       H -4.58389e+01 -2.46962e+01 -2.11258e+01             
       H -4.48809e+01 -2.51475e+01 -2.26007e+01             
       H -4.50863e+01 -2.63466e+01 -2.11923e+01             
       H -4.24309e+01 -2.46490e+01 -1.82274e+01             
       H -4.23321e+01 -2.30105e+01 -1.88341e+01             
       H -4.36621e+01 -2.33056e+01 -1.77420e+01             
       H -4.49312e+01 -2.38286e+01 -1.93395e+01             
