12                                                          
# CELL(abcABC):  100.00000   100.00000   100.00000    90.00000    90.00000    90.00000  Step:           0  Bead:       0 positions{angstrom}  cell{angstrom}    
       C -1.85724e+01 -9.83423e+00 -8.12663e+00             
       C -1.96789e+01 -1.06994e+01 -8.69777e+00             
       O -2.07335e+01 -1.08903e+01 -8.11604e+00             
       N -1.94997e+01 -1.11865e+01 -9.92541e+00             
       C -2.05201e+01 -1.17070e+01 -1.07713e+01             
       H -1.81373e+01 -1.04874e+01 -7.30900e+00             
       H -1.78121e+01 -9.48095e+00 -8.85821e+00             
       H -1.89855e+01 -8.98358e+00 -7.61946e+00             
       H -2.04705e+01 -1.14400e+01 -1.18345e+01             
       H -2.04805e+01 -1.27949e+01 -1.08392e+01             
       H -2.14890e+01 -1.15090e+01 -1.02674e+01             
       H -1.86144e+01 -1.10348e+01 -1.03772e+01             
12                                                          
# CELL(abcABC):  100.00000   100.00000   100.00000    90.00000    90.00000    90.00000  Step:      300000  Bead:       0 positions{angstrom}  cell{angstrom}    
       C -5.80922e+01 -3.17118e+01 -2.50998e+01             
       C -5.70771e+01 -3.20940e+01 -2.61397e+01             
       O -5.73391e+01 -3.28247e+01 -2.70842e+01             
       N -5.57997e+01 -3.16963e+01 -2.58830e+01             
       C -5.46907e+01 -3.17247e+01 -2.68537e+01             
       H -5.80045e+01 -3.06781e+01 -2.48173e+01             
       H -5.91338e+01 -3.19953e+01 -2.53563e+01             
       H -5.78885e+01 -3.23573e+01 -2.42304e+01             
       H -5.49439e+01 -3.13003e+01 -2.78536e+01             
       H -5.38790e+01 -3.11229e+01 -2.64005e+01             
       H -5.43415e+01 -3.27861e+01 -2.69680e+01             
       H -5.56868e+01 -3.10342e+01 -2.51342e+01             
