12                                                          
# CELL(abcABC):  100.00000   100.00000   100.00000    90.00000    90.00000    90.00000  Step:           0  Bead:       0 positions{angstrom}  cell{angstrom}    
       C -3.47077e+01 -2.00686e+01 -1.66436e+01             
       C -3.61197e+01 -2.06430e+01 -1.67607e+01             
       O -3.64228e+01 -2.17794e+01 -1.64754e+01             
       N -3.70516e+01 -1.97625e+01 -1.71733e+01             
       C -3.84189e+01 -2.02439e+01 -1.74841e+01             
       H -3.42315e+01 -2.04077e+01 -1.57246e+01             
       H -3.42247e+01 -2.04123e+01 -1.75835e+01             
       H -3.46275e+01 -1.89208e+01 -1.66693e+01             
       H -3.88991e+01 -2.03991e+01 -1.64982e+01             
       H -3.89515e+01 -1.94662e+01 -1.80401e+01             
       H -3.85149e+01 -2.12256e+01 -1.80901e+01             
       H -3.68021e+01 -1.88267e+01 -1.74532e+01             
12                                                          
# CELL(abcABC):  100.00000   100.00000   100.00000    90.00000    90.00000    90.00000  Step:      300000  Bead:       0 positions{angstrom}  cell{angstrom}    
       C -8.12187e+01 -4.81970e+01 -3.82960e+01             
       C -8.24526e+01 -4.72743e+01 -3.81932e+01             
       O -8.25009e+01 -4.66073e+01 -3.71446e+01             
       N -8.33521e+01 -4.71299e+01 -3.91885e+01             
       C -8.44518e+01 -4.62028e+01 -3.90994e+01             
       H -8.08100e+01 -4.83849e+01 -3.72726e+01             
       H -8.14384e+01 -4.91617e+01 -3.88023e+01             
       H -8.04993e+01 -4.77080e+01 -3.89645e+01             
       H -8.41550e+01 -4.54884e+01 -3.82578e+01             
       H -8.46948e+01 -4.56250e+01 -3.99754e+01             
       H -8.53593e+01 -4.67106e+01 -3.87731e+01             
       H -8.32347e+01 -4.77960e+01 -3.99675e+01             
