12                                                          
# CELL(abcABC):  100.00000   100.00000   100.00000    90.00000    90.00000    90.00000  Step:           0  Bead:       0 positions{angstrom}  cell{angstrom}    
       C -5.48175e+01 -2.97681e+01 -2.57192e+01             
       C -5.34792e+01 -2.97050e+01 -2.49066e+01             
       O -5.27403e+01 -2.87116e+01 -2.48638e+01             
       N -5.32389e+01 -3.09328e+01 -2.42527e+01             
       C -5.19614e+01 -3.12508e+01 -2.35753e+01             
       H -5.54784e+01 -2.88377e+01 -2.55859e+01             
       H -5.45603e+01 -2.99020e+01 -2.67891e+01             
       H -5.53567e+01 -3.07100e+01 -2.54245e+01             
       H -5.12731e+01 -3.03719e+01 -2.36539e+01             
       H -5.21164e+01 -3.14824e+01 -2.25260e+01             
       H -5.15333e+01 -3.20097e+01 -2.41019e+01             
       H -5.38951e+01 -3.16674e+01 -2.43019e+01             
12                                                          
# CELL(abcABC):  100.00000   100.00000   100.00000    90.00000    90.00000    90.00000  Step:      300000  Bead:       0 positions{angstrom}  cell{angstrom}    
       C -1.10593e+02 -6.50690e+01 -5.07997e+01             
       C -1.11086e+02 -6.37237e+01 -5.15315e+01             
       O -1.10405e+02 -6.26958e+01 -5.14747e+01             
       N -1.12317e+02 -6.37874e+01 -5.21439e+01             
       C -1.13037e+02 -6.25965e+01 -5.25936e+01             
       H -1.09894e+02 -6.55961e+01 -5.14202e+01             
       H -1.10023e+02 -6.47372e+01 -4.99659e+01             
       H -1.11455e+02 -6.57641e+01 -5.05836e+01             
       H -1.12387e+02 -6.20422e+01 -5.32605e+01             
       H -1.13955e+02 -6.28652e+01 -5.31249e+01             
       H -1.13279e+02 -6.19616e+01 -5.17428e+01             
       H -1.12784e+02 -6.45862e+01 -5.17437e+01             
