12                                                          
# CELL(abcABC):  100.00000   100.00000   100.00000    90.00000    90.00000    90.00000  Step:           0  Bead:       0 positions{angstrom}  cell{angstrom}    
       C -2.87744e+01 -1.39462e+01 -1.34303e+01             
       C -2.79988e+01 -1.50648e+01 -1.27369e+01             
       O -2.83261e+01 -1.55287e+01 -1.16539e+01             
       N -2.69431e+01 -1.56322e+01 -1.33756e+01             
       C -2.61459e+01 -1.66188e+01 -1.26465e+01             
       H -2.82146e+01 -1.29997e+01 -1.34998e+01             
       H -2.89998e+01 -1.42295e+01 -1.44741e+01             
       H -2.96357e+01 -1.37461e+01 -1.28301e+01             
       H -2.51194e+01 -1.63111e+01 -1.26672e+01             
       H -2.66118e+01 -1.66847e+01 -1.16896e+01             
       H -2.61600e+01 -1.75453e+01 -1.32552e+01             
       H -2.64894e+01 -1.51031e+01 -1.41200e+01             
12                                                          
# CELL(abcABC):  100.00000   100.00000   100.00000    90.00000    90.00000    90.00000  Step:      300000  Bead:       0 positions{angstrom}  cell{angstrom}    
       C -7.19005e+01 -4.14784e+01 -3.36118e+01             
       C -7.11842e+01 -4.04808e+01 -3.27507e+01             
       O -7.13514e+01 -4.03208e+01 -3.15527e+01             
       N -7.01734e+01 -3.98227e+01 -3.34163e+01             
       C -6.93828e+01 -3.87914e+01 -3.27048e+01             
       H -7.29918e+01 -4.13372e+01 -3.34792e+01             
       H -7.16564e+01 -4.13679e+01 -3.46187e+01             
       H -7.17199e+01 -4.24882e+01 -3.32172e+01             
       H -6.99179e+01 -3.78615e+01 -3.27344e+01             
       H -6.92661e+01 -3.91168e+01 -3.16998e+01             
       H -6.84482e+01 -3.87399e+01 -3.32760e+01             
       H -7.00464e+01 -3.99232e+01 -3.43999e+01             
