12                                                          
# CELL(abcABC):  100.00000   100.00000   100.00000    90.00000    90.00000    90.00000  Step:           0  Bead:       0 positions{angstrom}  cell{angstrom}    
       C -1.56938e+01 -8.00254e+00 -5.40655e+00             
       C -1.46830e+01 -7.98206e+00 -6.50967e+00             
       O -1.45848e+01 -8.75661e+00 -7.44939e+00             
       N -1.38155e+01 -6.93900e+00 -6.33277e+00             
       C -1.26031e+01 -6.76865e+00 -7.12902e+00             
       H -1.53811e+01 -7.33254e+00 -4.60637e+00             
       H -1.67331e+01 -7.86077e+00 -5.69268e+00             
       H -1.55334e+01 -8.96146e+00 -4.86596e+00             
       H -1.25823e+01 -7.65132e+00 -7.75133e+00             
       H -1.26994e+01 -5.86408e+00 -7.80277e+00             
       H -1.17088e+01 -6.55338e+00 -6.53529e+00             
       H -1.39567e+01 -6.31705e+00 -5.54022e+00             
12                                                          
# CELL(abcABC):  100.00000   100.00000   100.00000    90.00000    90.00000    90.00000  Step:      300000  Bead:       0 positions{angstrom}  cell{angstrom}    
       C -3.93111e+01 -2.02857e+01 -1.84077e+01             
       C -3.80893e+01 -2.09729e+01 -1.79376e+01             
       O -3.70091e+01 -2.06871e+01 -1.84181e+01             
       N -3.82606e+01 -2.18274e+01 -1.68757e+01             
       C -3.73497e+01 -2.28131e+01 -1.63270e+01             
       H -3.94908e+01 -2.05351e+01 -1.94771e+01             
       H -4.02255e+01 -2.05391e+01 -1.78272e+01             
       H -3.92413e+01 -1.91916e+01 -1.84047e+01             
       H -3.75934e+01 -2.30487e+01 -1.52557e+01             
       H -3.72262e+01 -2.37717e+01 -1.69245e+01             
       H -3.63344e+01 -2.23694e+01 -1.62881e+01             
       H -3.92169e+01 -2.19235e+01 -1.65667e+01             
