12                                                          
# CELL(abcABC):  100.00000   100.00000   100.00000    90.00000    90.00000    90.00000  Step:           0  Bead:       0 positions{angstrom}  cell{angstrom}    
       C -4.03869e+01 -2.12529e+01 -1.83823e+01             
       C -4.05683e+01 -2.25901e+01 -1.89641e+01             
       O -3.96036e+01 -2.31485e+01 -1.94802e+01             
       N -4.18035e+01 -2.32120e+01 -1.87982e+01             
       C -4.20017e+01 -2.46369e+01 -1.90043e+01             
       H -3.98313e+01 -2.06855e+01 -1.91354e+01             
       H -4.13462e+01 -2.07141e+01 -1.82160e+01             
       H -3.97948e+01 -2.13433e+01 -1.74583e+01             
       H -4.27442e+01 -2.48015e+01 -1.97891e+01             
       H -4.10648e+01 -2.50776e+01 -1.92299e+01             
       H -4.24599e+01 -2.51018e+01 -1.81089e+01             
       H -4.24708e+01 -2.27047e+01 -1.82363e+01             
12                                                          
# CELL(abcABC):  100.00000   100.00000   100.00000    90.00000    90.00000    90.00000  Step:      300000  Bead:       0 positions{angstrom}  cell{angstrom}    
       C -8.70624e+01 -4.94277e+01 -3.95021e+01             
       C -8.57991e+01 -4.87069e+01 -3.97780e+01             
       O -8.56192e+01 -4.81566e+01 -4.08856e+01             
       N -8.47791e+01 -4.87055e+01 -3.88440e+01             
       C -8.36366e+01 -4.77947e+01 -3.88836e+01             
       H -8.68550e+01 -5.03795e+01 -3.89484e+01             
       H -8.77349e+01 -4.87744e+01 -3.89385e+01             
       H -8.74527e+01 -4.95952e+01 -4.05012e+01             
       H -8.27766e+01 -4.82703e+01 -3.83642e+01             
       H -8.32806e+01 -4.76516e+01 -3.99742e+01             
       H -8.38534e+01 -4.67893e+01 -3.83850e+01             
       H -8.50913e+01 -4.90887e+01 -3.79660e+01             
