12                                                          
# CELL(abcABC):  100.00000   100.00000   100.00000    90.00000    90.00000    90.00000  Step:           0  Bead:       0 positions{angstrom}  cell{angstrom}    
       C -1.07001e+01 -7.44224e+00 -4.42535e+00             
       C -1.17164e+01 -6.55132e+00 -5.02215e+00             
       O -1.25317e+01 -5.88969e+00 -4.37153e+00             
       N -1.18208e+01 -6.39474e+00 -6.43469e+00             
       C -1.27317e+01 -5.40316e+00 -7.03382e+00             
       H -1.01266e+01 -7.89368e+00 -5.24810e+00             
       H -1.00913e+01 -6.93090e+00 -3.73497e+00             
       H -1.12605e+01 -8.17695e+00 -3.90239e+00             
       H -1.24589e+01 -5.29558e+00 -8.04794e+00             
       H -1.37379e+01 -5.91631e+00 -7.01128e+00             
       H -1.27023e+01 -4.49480e+00 -6.50528e+00             
       H -1.11172e+01 -6.77305e+00 -7.07208e+00             
12                                                          
# CELL(abcABC):  100.00000   100.00000   100.00000    90.00000    90.00000    90.00000  Step:      300000  Bead:       0 positions{angstrom}  cell{angstrom}    
       C -4.32145e+01 -2.23973e+01 -2.05931e+01             
       C -4.30317e+01 -2.38124e+01 -2.01275e+01             
       O -4.38032e+01 -2.47530e+01 -2.03323e+01             
       N -4.19935e+01 -2.39328e+01 -1.92450e+01             
       C -4.16001e+01 -2.52754e+01 -1.86635e+01             
       H -4.41884e+01 -2.22728e+01 -2.11077e+01             
       H -4.31992e+01 -2.17863e+01 -1.96736e+01             
       H -4.23978e+01 -2.20140e+01 -2.12367e+01             
       H -4.04860e+01 -2.54082e+01 -1.84674e+01             
       H -4.21317e+01 -2.54479e+01 -1.77160e+01             
       H -4.19830e+01 -2.60597e+01 -1.94369e+01             
       H -4.16613e+01 -2.30996e+01 -1.88200e+01             
