12                                                          
# CELL(abcABC):  100.00000   100.00000   100.00000    90.00000    90.00000    90.00000  Step:           0  Bead:       0 positions{angstrom}  cell{angstrom}    
       C -9.34125e+00 -3.19444e+00 -3.10950e+00             
       C -9.02856e+00 -4.52507e+00 -3.74301e+00             
       O -8.45170e+00 -5.41137e+00 -3.10786e+00             
       N -9.41930e+00 -4.63214e+00 -5.07847e+00             
       C -9.34866e+00 -5.83159e+00 -5.80963e+00             
       H -8.64411e+00 -3.05404e+00 -2.35963e+00             
       H -9.39554e+00 -2.39702e+00 -3.82219e+00             
       H -1.02193e+01 -3.21768e+00 -2.44938e+00             
       H -9.03581e+00 -6.62445e+00 -4.96139e+00             
       H -1.02798e+01 -6.02955e+00 -6.35500e+00             
       H -8.52605e+00 -5.83915e+00 -6.59773e+00             
       H -9.88249e+00 -3.86299e+00 -5.52863e+00             
12                                                          
# CELL(abcABC):  100.00000   100.00000   100.00000    90.00000    90.00000    90.00000  Step:      300000  Bead:       0 positions{angstrom}  cell{angstrom}    
       C -3.86271e+01 -1.97170e+01 -1.69354e+01             
       C -3.84028e+01 -2.11573e+01 -1.74149e+01             
       O -3.91505e+01 -2.20800e+01 -1.70687e+01             
       N -3.74107e+01 -2.13329e+01 -1.82937e+01             
       C -3.72315e+01 -2.27411e+01 -1.85764e+01             
       H -3.83822e+01 -1.97013e+01 -1.58521e+01             
       H -3.80077e+01 -1.89703e+01 -1.74368e+01             
       H -3.97371e+01 -1.94410e+01 -1.70820e+01             
       H -3.63261e+01 -2.28157e+01 -1.92891e+01             
       H -3.68986e+01 -2.31498e+01 -1.76552e+01             
       H -3.81673e+01 -2.32009e+01 -1.89819e+01             
       H -3.66169e+01 -2.07326e+01 -1.83156e+01             
