12                                                          
# CELL(abcABC):  100.00000   100.00000   100.00000    90.00000    90.00000    90.00000  Step:           0  Bead:       0 positions{angstrom}  cell{angstrom}    
       C -3.63358e+01 -1.91094e+01 -1.70632e+01             
       C -3.68120e+01 -2.05271e+01 -1.69403e+01             
       O -3.64673e+01 -2.12663e+01 -1.59998e+01             
       N -3.75639e+01 -2.09940e+01 -1.80243e+01             
       C -3.84068e+01 -2.21848e+01 -1.78449e+01             
       H -3.58955e+01 -1.87810e+01 -1.81051e+01             
       H -3.70156e+01 -1.83278e+01 -1.67482e+01             
       H -3.55649e+01 -1.89657e+01 -1.63089e+01             
       H -3.81251e+01 -2.27511e+01 -1.69453e+01             
       H -3.95194e+01 -2.21008e+01 -1.79623e+01             
       H -3.82284e+01 -2.28441e+01 -1.87144e+01             
       H -3.77649e+01 -2.02771e+01 -1.86843e+01             
12                                                          
# CELL(abcABC):  100.00000   100.00000   100.00000    90.00000    90.00000    90.00000  Step:      300000  Bead:       0 positions{angstrom}  cell{angstrom}    
       C -8.81592e+01 -4.85756e+01 -4.18322e+01             
       C -8.86197e+01 -4.99655e+01 -4.13439e+01             
       O -8.96613e+01 -5.04460e+01 -4.17550e+01             
       N -8.77256e+01 -5.07096e+01 -4.04979e+01             
       C -8.81215e+01 -5.18923e+01 -3.96855e+01             
       H -8.70724e+01 -4.84462e+01 -4.21041e+01             
       H -8.87970e+01 -4.85096e+01 -4.27722e+01             
       H -8.84445e+01 -4.79531e+01 -4.09724e+01             
       H -8.92035e+01 -5.21174e+01 -3.98767e+01             
       H -8.76065e+01 -5.27927e+01 -3.99885e+01             
       H -8.80321e+01 -5.16812e+01 -3.86453e+01             
       H -8.70074e+01 -5.01326e+01 -4.01031e+01             
