12                                                          
# CELL(abcABC):  100.00000   100.00000   100.00000    90.00000    90.00000    90.00000  Step:           0  Bead:       0 positions{angstrom}  cell{angstrom}    
       C -3.21869e+01 -1.63343e+01 -1.52105e+01             
       C -3.11705e+01 -1.68587e+01 -1.42032e+01             
       O -3.12991e+01 -1.67516e+01 -1.30213e+01             
       N -3.01242e+01 -1.75652e+01 -1.47983e+01             
       C -2.93124e+01 -1.84108e+01 -1.40182e+01             
       H -3.31392e+01 -1.65307e+01 -1.47631e+01             
       H -3.21234e+01 -1.52625e+01 -1.51647e+01             
       H -3.21686e+01 -1.65927e+01 -1.62820e+01             
       H -2.96498e+01 -1.85820e+01 -1.30177e+01             
       H -2.91534e+01 -1.94072e+01 -1.45382e+01             
       H -2.82763e+01 -1.79311e+01 -1.38454e+01             
       H -3.02794e+01 -1.77016e+01 -1.57312e+01             
12                                                          
# CELL(abcABC):  100.00000   100.00000   100.00000    90.00000    90.00000    90.00000  Step:      300000  Bead:       0 positions{angstrom}  cell{angstrom}    
       C -8.51974e+01 -4.91437e+01 -3.91884e+01             
       C -8.64784e+01 -4.89974e+01 -3.99545e+01             
       O -8.68656e+01 -4.79398e+01 -4.03852e+01             
       N -8.70457e+01 -5.02086e+01 -4.03078e+01             
       C -8.81620e+01 -5.04036e+01 -4.12077e+01             
       H -8.50167e+01 -5.02280e+01 -3.91867e+01             
       H -8.44820e+01 -4.85017e+01 -3.96436e+01             
       H -8.53938e+01 -4.86821e+01 -3.81470e+01             
       H -8.82603e+01 -5.14444e+01 -4.14180e+01             
       H -8.90980e+01 -5.00686e+01 -4.06985e+01             
       H -8.79653e+01 -4.99293e+01 -4.21503e+01             
       H -8.65405e+01 -5.10153e+01 -4.01682e+01             
