12                                                          
# CELL(abcABC):  100.00000   100.00000   100.00000    90.00000    90.00000    90.00000  Step:           0  Bead:       0 positions{angstrom}  cell{angstrom}    
       C -1.07700e+01 -3.93614e+00 -3.30807e+00             
       C -9.60854e+00 -4.63479e+00 -4.02203e+00             
       O -8.40921e+00 -4.38335e+00 -3.73016e+00             
       N -9.89789e+00 -5.53456e+00 -4.95703e+00             
       C -8.85186e+00 -6.23265e+00 -5.73512e+00             
       H -1.10002e+01 -2.88960e+00 -3.64213e+00             
       H -1.17346e+01 -4.40567e+00 -3.30215e+00             
       H -1.04082e+01 -3.79063e+00 -2.34550e+00             
       H -9.03507e+00 -7.26714e+00 -5.58171e+00             
       H -8.97035e+00 -5.93763e+00 -6.82908e+00             
       H -7.95147e+00 -5.94065e+00 -5.32125e+00             
       H -1.08962e+01 -5.74221e+00 -5.06021e+00             
12                                                          
# CELL(abcABC):  100.00000   100.00000   100.00000    90.00000    90.00000    90.00000  Step:      300000  Bead:       0 positions{angstrom}  cell{angstrom}    
       C -3.50859e+01 -1.82309e+01 -1.44783e+01             
       C -3.44310e+01 -1.90416e+01 -1.56506e+01             
       O -3.33353e+01 -1.86327e+01 -1.60339e+01             
       N -3.52069e+01 -2.00309e+01 -1.62280e+01             
       C -3.46848e+01 -2.07449e+01 -1.74791e+01             
       H -3.61296e+01 -1.85172e+01 -1.43738e+01             
       H -3.46274e+01 -1.84156e+01 -1.35158e+01             
       H -3.49697e+01 -1.71530e+01 -1.46467e+01             
       H -3.41551e+01 -1.99328e+01 -1.80854e+01             
       H -3.38846e+01 -2.14415e+01 -1.71706e+01             
       H -3.54400e+01 -2.12388e+01 -1.80585e+01             
       H -3.59908e+01 -2.03859e+01 -1.57472e+01             
