12                                                          
# CELL(abcABC):  100.00000   100.00000   100.00000    90.00000    90.00000    90.00000  Step:           0  Bead:       0 positions{angstrom}  cell{angstrom}    
       C -4.42857e+01 -2.33468e+01 -1.99497e+01             
       C -4.43302e+01 -2.48537e+01 -2.03290e+01             
       O -4.35041e+01 -2.56445e+01 -1.99085e+01             
       N -4.53289e+01 -2.51828e+01 -2.12165e+01             
       C -4.55141e+01 -2.65220e+01 -2.17758e+01             
       H -4.50692e+01 -2.31774e+01 -1.92266e+01             
       H -4.33109e+01 -2.30747e+01 -1.94818e+01             
       H -4.44780e+01 -2.27018e+01 -2.08396e+01             
       H -4.45658e+01 -2.71166e+01 -2.17344e+01             
       H -4.62810e+01 -2.70775e+01 -2.12503e+01             
       H -4.56983e+01 -2.63818e+01 -2.27853e+01             
       H -4.59023e+01 -2.44775e+01 -2.16667e+01             
12                                                          
# CELL(abcABC):  100.00000   100.00000   100.00000    90.00000    90.00000    90.00000  Step:      300000  Bead:       0 positions{angstrom}  cell{angstrom}    
       C -1.02592e+02 -5.69268e+01 -4.86559e+01             
       C -1.02024e+02 -5.75589e+01 -4.73904e+01             
       O -1.01904e+02 -5.69658e+01 -4.63388e+01             
       N -1.01760e+02 -5.89674e+01 -4.75227e+01             
       C -1.01428e+02 -5.98709e+01 -4.64520e+01             
       H -1.03501e+02 -5.63260e+01 -4.85748e+01             
       H -1.01809e+02 -5.63372e+01 -4.91188e+01             
       H -1.02891e+02 -5.77046e+01 -4.93814e+01             
       H -1.00902e+02 -6.08051e+01 -4.68090e+01             
       H -1.00832e+02 -5.94692e+01 -4.56223e+01             
       H -1.02414e+02 -6.01922e+01 -4.59745e+01             
       H -1.01720e+02 -5.93175e+01 -4.84577e+01             
