12                                                          
# CELL(abcABC):  100.00000   100.00000   100.00000    90.00000    90.00000    90.00000  Step:           0  Bead:       0 positions{angstrom}  cell{angstrom}    
       C -2.66286e+01 -1.32367e+01 -1.23241e+01             
       C -2.71070e+01 -1.46528e+01 -1.22853e+01             
       O -2.78642e+01 -1.50042e+01 -1.14093e+01             
       N -2.66655e+01 -1.55586e+01 -1.32870e+01             
       C -2.73049e+01 -1.68869e+01 -1.33480e+01             
       H -2.74582e+01 -1.25367e+01 -1.26364e+01             
       H -2.64521e+01 -1.28707e+01 -1.12946e+01             
       H -2.57361e+01 -1.30781e+01 -1.29660e+01             
       H -2.78058e+01 -1.70533e+01 -1.24261e+01             
       H -2.80519e+01 -1.69067e+01 -1.41808e+01             
       H -2.65966e+01 -1.77073e+01 -1.33423e+01             
       H -2.63221e+01 -1.50739e+01 -1.41162e+01             
12                                                          
# CELL(abcABC):  100.00000   100.00000   100.00000    90.00000    90.00000    90.00000  Step:      300000  Bead:       0 positions{angstrom}  cell{angstrom}    
       C -7.63985e+01 -4.42923e+01 -3.57228e+01             
       C -7.55295e+01 -4.33099e+01 -3.50485e+01             
       O -7.44793e+01 -4.36538e+01 -3.44540e+01             
       N -7.59088e+01 -4.20249e+01 -3.51099e+01             
       C -7.50105e+01 -4.10460e+01 -3.45529e+01             
       H -7.74492e+01 -4.40015e+01 -3.57959e+01             
       H -7.60213e+01 -4.43504e+01 -3.68124e+01             
       H -7.61938e+01 -4.52864e+01 -3.52735e+01             
       H -7.40171e+01 -4.15030e+01 -3.44186e+01             
       H -7.49118e+01 -4.01363e+01 -3.50874e+01             
       H -7.52465e+01 -4.06626e+01 -3.34888e+01             
       H -7.68102e+01 -4.17739e+01 -3.55141e+01             
