12                                                          
# CELL(abcABC):  100.00000   100.00000   100.00000    90.00000    90.00000    90.00000  Step:           0  Bead:       0 positions{angstrom}  cell{angstrom}    
       C -4.75763e+01 -2.77313e+01 -2.12233e+01             
       C -4.68481e+01 -2.65128e+01 -2.17352e+01             
       O -4.71665e+01 -2.59262e+01 -2.28056e+01             
       N -4.58318e+01 -2.61029e+01 -2.09333e+01             
       C -4.50901e+01 -2.48088e+01 -2.09849e+01             
       H -4.76715e+01 -2.77836e+01 -2.01582e+01             
       H -4.85773e+01 -2.78409e+01 -2.16889e+01             
       H -4.69790e+01 -2.85596e+01 -2.16359e+01             
       H -4.53812e+01 -2.41044e+01 -2.00342e+01             
       H -4.40212e+01 -2.50593e+01 -2.09074e+01             
       H -4.53776e+01 -2.43709e+01 -2.18814e+01             
       H -4.57728e+01 -2.66044e+01 -2.00737e+01             
12                                                          
# CELL(abcABC):  100.00000   100.00000   100.00000    90.00000    90.00000    90.00000  Step:      300000  Bead:       0 positions{angstrom}  cell{angstrom}    
       C -1.09676e+02 -6.08385e+01 -5.08830e+01             
       C -1.09636e+02 -6.23176e+01 -5.09923e+01             
       O -1.08547e+02 -6.28518e+01 -5.09812e+01             
       N -1.10872e+02 -6.29758e+01 -5.11940e+01             
       C -1.11057e+02 -6.44049e+01 -5.09324e+01             
       H -1.10022e+02 -6.03262e+01 -5.18011e+01             
       H -1.10375e+02 -6.04026e+01 -5.01780e+01             
       H -1.08692e+02 -6.04212e+01 -5.07713e+01             
       H -1.10036e+02 -6.47165e+01 -5.05482e+01             
       H -1.11813e+02 -6.47559e+01 -5.02453e+01             
       H -1.11272e+02 -6.49430e+01 -5.18509e+01             
       H -1.11754e+02 -6.24943e+01 -5.10957e+01             
