12                                                          
# CELL(abcABC):  100.00000   100.00000   100.00000    90.00000    90.00000    90.00000  Step:           0  Bead:       0 positions{angstrom}  cell{angstrom}    
       C -3.98310e+01 -2.36883e+01 -1.76660e+01             
       C -3.94858e+01 -2.22622e+01 -1.81781e+01             
       O -4.00288e+01 -2.17729e+01 -1.91672e+01             
       N -3.84743e+01 -2.16748e+01 -1.75062e+01             
       C -3.78170e+01 -2.04710e+01 -1.79682e+01             
       H -3.96219e+01 -2.38632e+01 -1.65906e+01             
       H -4.09302e+01 -2.37765e+01 -1.77939e+01             
       H -3.93149e+01 -2.43870e+01 -1.84295e+01             
       H -3.83885e+01 -1.95407e+01 -1.77838e+01             
       H -3.68296e+01 -2.04184e+01 -1.74909e+01             
       H -3.77909e+01 -2.04477e+01 -1.90670e+01             
       H -3.79722e+01 -2.22875e+01 -1.68709e+01             
12                                                          
# CELL(abcABC):  100.00000   100.00000   100.00000    90.00000    90.00000    90.00000  Step:      300000  Bead:       0 positions{angstrom}  cell{angstrom}    
       C -7.66324e+01 -4.21868e+01 -3.54131e+01             
       C -7.51689e+01 -4.22262e+01 -3.48719e+01             
       O -7.43921e+01 -4.13309e+01 -3.52329e+01             
       N -7.48350e+01 -4.32400e+01 -3.39999e+01             
       C -7.34232e+01 -4.35724e+01 -3.39914e+01             
       H -7.71647e+01 -4.31596e+01 -3.52603e+01             
       H -7.71076e+01 -4.12929e+01 -3.49875e+01             
       H -7.64593e+01 -4.20154e+01 -3.64692e+01             
       H -7.30921e+01 -4.39621e+01 -3.30497e+01             
       H -7.31879e+01 -4.44237e+01 -3.46358e+01             
       H -7.28913e+01 -4.26514e+01 -3.42475e+01             
       H -7.55188e+01 -4.39761e+01 -3.38031e+01             
