12                                                          
# CELL(abcABC):  100.00000   100.00000   100.00000    90.00000    90.00000    90.00000  Step:           0  Bead:       0 positions{angstrom}  cell{angstrom}    
       C -4.34645e+01 -2.40709e+01 -2.08928e+01             
       C -4.25705e+01 -2.35834e+01 -1.96865e+01             
       O -4.27855e+01 -2.25254e+01 -1.91410e+01             
       N -4.14502e+01 -2.42981e+01 -1.94878e+01             
       C -4.05392e+01 -2.40581e+01 -1.83728e+01             
       H -4.29192e+01 -2.39138e+01 -2.18636e+01             
       H -4.36656e+01 -2.51303e+01 -2.07077e+01             
       H -4.43974e+01 -2.35109e+01 -2.08503e+01             
       H -4.00641e+01 -2.50648e+01 -1.81651e+01             
       H -3.98869e+01 -2.32652e+01 -1.85780e+01             
       H -4.11749e+01 -2.38385e+01 -1.74907e+01             
       H -4.11872e+01 -2.50229e+01 -2.01649e+01             
12                                                          
# CELL(abcABC):  100.00000   100.00000   100.00000    90.00000    90.00000    90.00000  Step:      300000  Bead:       0 positions{angstrom}  cell{angstrom}    
       C -1.12542e+02 -6.38486e+01 -5.20308e+01             
       C -1.11280e+02 -6.30595e+01 -5.15410e+01             
       O -1.11207e+02 -6.18325e+01 -5.13301e+01             
       N -1.10221e+02 -6.38317e+01 -5.11932e+01             
       C -1.08946e+02 -6.33314e+01 -5.08699e+01             
       H -1.13431e+02 -6.31980e+01 -5.22339e+01             
       H -1.12225e+02 -6.43726e+01 -5.29518e+01             
       H -1.12872e+02 -6.45549e+01 -5.12135e+01             
       H -1.08212e+02 -6.41233e+01 -5.08037e+01             
       H -1.08599e+02 -6.26653e+01 -5.16897e+01             
       H -1.09108e+02 -6.26965e+01 -5.00208e+01             
       H -1.10275e+02 -6.47482e+01 -5.15985e+01             
