12                                                          
# CELL(abcABC):  100.00000   100.00000   100.00000    90.00000    90.00000    90.00000  Step:           0  Bead:       0 positions{angstrom}  cell{angstrom}    
       C -5.11420e+01 -3.03028e+01 -2.33031e+01             
       C -5.08512e+01 -2.88068e+01 -2.34167e+01             
       O -5.17496e+01 -2.80038e+01 -2.36264e+01             
       N -4.95625e+01 -2.84036e+01 -2.31035e+01             
       C -4.92012e+01 -2.70704e+01 -2.34308e+01             
       H -5.11681e+01 -3.06306e+01 -2.43529e+01             
       H -5.03401e+01 -3.09001e+01 -2.29158e+01             
       H -5.21428e+01 -3.04341e+01 -2.28888e+01             
       H -4.81785e+01 -2.68451e+01 -2.31031e+01             
       H -4.92127e+01 -2.68197e+01 -2.46301e+01             
       H -4.99466e+01 -2.63004e+01 -2.30095e+01             
       H -4.88872e+01 -2.91107e+01 -2.29021e+01             
12                                                          
# CELL(abcABC):  100.00000   100.00000   100.00000    90.00000    90.00000    90.00000  Step:      300000  Bead:       0 positions{angstrom}  cell{angstrom}    
       C -9.15774e+01 -5.12856e+01 -4.23609e+01             
       C -9.24681e+01 -5.22980e+01 -4.30655e+01             
       O -9.28190e+01 -5.20643e+01 -4.42302e+01             
       N -9.27542e+01 -5.34254e+01 -4.23843e+01             
       C -9.36242e+01 -5.45592e+01 -4.27655e+01             
       H -9.15608e+01 -5.13423e+01 -4.12530e+01             
       H -9.05078e+01 -5.14744e+01 -4.25608e+01             
       H -9.18017e+01 -5.02769e+01 -4.27646e+01             
       H -9.35206e+01 -5.46947e+01 -4.38375e+01             
       H -9.32076e+01 -5.55220e+01 -4.23451e+01             
       H -9.46505e+01 -5.44746e+01 -4.24227e+01             
       H -9.27358e+01 -5.32735e+01 -4.13940e+01             
