12                                                          
# CELL(abcABC):  100.00000   100.00000   100.00000    90.00000    90.00000    90.00000  Step:           0  Bead:       0 x_centroid{angstrom}  cell{angstrom}   
       C -2.06029e+00  6.89949e-01  6.79385e-01             
       C -1.58789e+00 -4.16143e-01 -3.23769e-01             
       O -7.43304e-01 -1.32101e+00 -1.29153e-01             
       N -2.30250e+00 -2.63568e-01 -1.46217e+00             
       C -2.16465e+00 -1.19525e+00 -2.58587e+00             
       H -2.52296e+00  1.62493e+00  3.38489e-01             
       H -2.85975e+00  1.60182e-01  1.32945e+00             
       H -1.21262e+00  9.30060e-01  1.40208e+00             
       H -1.53468e+00 -1.99402e+00 -2.22306e+00             
       H -3.14593e+00 -1.74912e+00 -2.72423e+00             
       H -1.88034e+00 -6.98368e-01 -3.56679e+00             
       H -3.10983e+00  3.37532e-01 -1.49086e+00             
12                                                          
# CELL(abcABC):  100.00000   100.00000   100.00000    90.00000    90.00000    90.00000  Step:      250000  Bead:       0 x_centroid{angstrom}  cell{angstrom}   
       C -3.44330e+01 -2.07531e+01 -1.52302e+01             
       C -3.37715e+01 -1.94266e+01 -1.56850e+01             
       O -3.26950e+01 -1.95227e+01 -1.62396e+01             
       N -3.45064e+01 -1.82826e+01 -1.54682e+01             
       C -3.41262e+01 -1.69414e+01 -1.57939e+01             
       H -3.48530e+01 -2.08640e+01 -1.41569e+01             
       H -3.52880e+01 -2.09102e+01 -1.59452e+01             
       H -3.37546e+01 -2.15928e+01 -1.53384e+01             
       H -3.47963e+01 -1.65809e+01 -1.65504e+01             
       H -3.41579e+01 -1.62873e+01 -1.49442e+01             
       H -3.31056e+01 -1.68278e+01 -1.62184e+01             
       H -3.54308e+01 -1.84240e+01 -1.50979e+01             
