12                                                          
# CELL(abcABC):  100.00000   100.00000   100.00000    90.00000    90.00000    90.00000  Step:           0  Bead:       0 x_centroid{angstrom}  cell{angstrom}   
       C -3.37310e+00 -2.01784e+00  2.84006e-01             
       C -2.52370e+00 -1.32262e+00 -8.02802e-01             
       O -1.27591e+00 -1.25686e+00 -7.51355e-01             
       N -3.27111e+00 -7.04096e-01 -1.76441e+00             
       C -2.75082e+00  2.10607e-01 -2.76054e+00             
       H -3.54296e+00 -3.10451e+00  2.23139e-01             
       H -2.79173e+00 -1.71923e+00  1.19606e+00             
       H -4.36117e+00 -1.46621e+00  3.66986e-01             
       H -3.58498e+00  7.97490e-01 -3.25470e+00             
       H -1.98450e+00  9.38045e-01 -2.33984e+00             
       H -2.24624e+00 -3.77486e-01 -3.56790e+00             
       H -4.30752e+00 -8.13552e-01 -1.87976e+00             
12                                                          
# CELL(abcABC):  100.00000   100.00000   100.00000    90.00000    90.00000    90.00000  Step:      250000  Bead:       0 x_centroid{angstrom}  cell{angstrom}   
       C -3.44791e+01 -1.94148e+01 -1.39902e+01             
       C -3.42220e+01 -1.93114e+01 -1.55375e+01             
       O -3.30576e+01 -1.92302e+01 -1.59734e+01             
       N -3.53242e+01 -1.92897e+01 -1.63496e+01             
       C -3.51877e+01 -1.92272e+01 -1.77887e+01             
       H -3.44111e+01 -1.83494e+01 -1.35439e+01             
       H -3.53824e+01 -1.99479e+01 -1.36113e+01             
       H -3.35865e+01 -1.98628e+01 -1.35142e+01             
       H -3.59776e+01 -1.86002e+01 -1.82398e+01             
       H -3.42377e+01 -1.88426e+01 -1.81709e+01             
       H -3.52854e+01 -2.01978e+01 -1.82453e+01             
       H -3.62861e+01 -1.90999e+01 -1.59875e+01             
