12                                                          
# CELL(abcABC):  100.00000   100.00000   100.00000    90.00000    90.00000    90.00000  Step:           0  Bead:       0 x_centroid{angstrom}  cell{angstrom}   
       C -1.11195e+00  7.12155e-01  1.60151e+00             
       C -1.20997e-01  7.79755e-01  3.79931e-01             
       O  7.48609e-01  1.63997e+00  3.55169e-01             
       N -4.17345e-01 -1.87777e-01 -5.54494e-01             
       C  4.17314e-01 -5.85095e-01 -1.69954e+00             
       H -4.22785e-01  8.46708e-01  2.48234e+00             
       H -1.92100e+00  1.46140e+00  1.60783e+00             
       H -1.56388e+00 -3.41833e-01  1.75811e+00             
       H  1.04332e+00  2.57652e-01 -1.89412e+00             
       H  1.04353e+00 -1.46102e+00 -1.50503e+00             
       H -2.18220e-01 -7.29794e-01 -2.57810e+00             
       H -1.13746e+00 -8.55612e-01 -1.61458e-01             
12                                                          
# CELL(abcABC):  100.00000   100.00000   100.00000    90.00000    90.00000    90.00000  Step:      250000  Bead:       0 x_centroid{angstrom}  cell{angstrom}   
       C -2.61983e+01 -1.59352e+01 -1.16259e+01             
       C -2.55631e+01 -1.45201e+01 -1.14908e+01             
       O -2.50973e+01 -1.40585e+01 -1.04304e+01             
       N -2.56203e+01 -1.37578e+01 -1.26280e+01             
       C -2.49191e+01 -1.24186e+01 -1.26594e+01             
       H -2.55000e+01 -1.66722e+01 -1.20874e+01             
       H -2.65180e+01 -1.63899e+01 -1.05702e+01             
       H -2.70889e+01 -1.59670e+01 -1.22776e+01             
       H -2.38529e+01 -1.25727e+01 -1.28109e+01             
       H -2.54082e+01 -1.17796e+01 -1.34027e+01             
       H -2.50528e+01 -1.19040e+01 -1.17035e+01             
       H -2.61530e+01 -1.41157e+01 -1.34363e+01             
