12                                                          
# CELL(abcABC):  100.00000   100.00000   100.00000    90.00000    90.00000    90.00000  Step:           0  Bead:       0 x_centroid{angstrom}  cell{angstrom}   
       C -1.53955e+00  1.70292e+00  9.30375e-02             
       C -2.57972e-01  8.89403e-01  1.61196e-01             
       O  8.63032e-01  1.40520e+00  3.37887e-01             
       N -3.75767e-01 -4.64590e-01 -2.82438e-02             
       C  7.97215e-01 -1.18236e+00 -4.41950e-01             
       H -1.64903e+00  2.08082e+00 -9.44593e-01             
       H -2.38346e+00  1.05590e+00  4.57223e-01             
       H -1.46049e+00  2.50453e+00  7.97506e-01             
       H  1.54457e+00 -1.22693e+00  4.00050e-01             
       H  5.28766e-01 -2.22842e+00 -7.62449e-01             
       H  1.29761e+00 -6.23015e-01 -1.30211e+00             
       H -1.24964e+00 -8.02743e-01 -3.83351e-01             
12                                                          
# CELL(abcABC):  100.00000   100.00000   100.00000    90.00000    90.00000    90.00000  Step:      250000  Bead:       0 x_centroid{angstrom}  cell{angstrom}   
       C -1.88540e+01 -1.12199e+01 -1.06857e+01             
       C -1.97645e+01 -1.12031e+01 -9.45778e+00             
       O -1.92998e+01 -1.14833e+01 -8.36973e+00             
       N -2.10609e+01 -1.08694e+01 -9.62678e+00             
       C -2.19963e+01 -1.06960e+01 -8.47837e+00             
       H -1.84032e+01 -1.22733e+01 -1.09015e+01             
       H -1.92691e+01 -1.09029e+01 -1.16599e+01             
       H -1.79664e+01 -1.06052e+01 -1.05466e+01             
       H -2.13266e+01 -1.09881e+01 -7.69125e+00             
       H -2.23129e+01 -9.67867e+00 -8.23217e+00             
       H -2.28511e+01 -1.13989e+01 -8.51808e+00             
       H -2.12467e+01 -1.06651e+01 -1.05902e+01             
