12                                                          
# CELL(abcABC):  100.00000   100.00000   100.00000    90.00000    90.00000    90.00000  Step:           0  Bead:       0 x_centroid{angstrom}  cell{angstrom}   
       C -6.17533e-02 -1.30264e+00  4.86557e-01             
       C  1.90500e-01  8.08181e-02  7.57783e-02             
       O  1.32857e+00  5.84392e-01  1.15741e-01             
       N -9.68050e-01  7.28256e-01 -2.47824e-01             
       C -9.24498e-01  2.16371e+00 -3.86767e-01             
       H  5.72438e-01 -2.00032e+00 -1.43519e-01             
       H  8.43175e-02 -1.46475e+00  1.56667e+00             
       H -1.10867e+00 -1.56025e+00  3.12186e-01             
       H -7.15964e-01  2.57016e+00  6.18476e-01             
       H -1.23129e-01  2.38880e+00 -1.07043e+00             
       H -1.84141e+00  2.55721e+00 -7.71330e-01             
       H -1.83364e+00  2.94623e-01  2.28860e-03             
12                                                          
# CELL(abcABC):  100.00000   100.00000   100.00000    90.00000    90.00000    90.00000  Step:      250000  Bead:       0 x_centroid{angstrom}  cell{angstrom}   
       C -2.64342e+01 -1.43556e+01 -1.03331e+01             
       C -2.61445e+01 -1.46181e+01 -1.17557e+01             
       O -2.49796e+01 -1.46036e+01 -1.21595e+01             
       N -2.72288e+01 -1.46751e+01 -1.25987e+01             
       C -2.70446e+01 -1.49582e+01 -1.40164e+01             
       H -2.59773e+01 -1.34054e+01 -9.86269e+00             
       H -2.75102e+01 -1.43557e+01 -1.01547e+01             
       H -2.60026e+01 -1.52329e+01 -9.77730e+00             
       H -2.60182e+01 -1.53404e+01 -1.41053e+01             
       H -2.77540e+01 -1.55798e+01 -1.45271e+01             
       H -2.70335e+01 -1.40772e+01 -1.46321e+01             
       H -2.81899e+01 -1.44495e+01 -1.22012e+01             
