12                                                          
# CELL(abcABC):  100.00000   100.00000   100.00000    90.00000    90.00000    90.00000  Step:           0  Bead:       0 x_centroid{angstrom}  cell{angstrom}   
       C -1.00601e+00 -1.64087e-01 -1.53733e+00             
       C -1.37554e-01  4.89764e-01 -4.71405e-01             
       O  5.59534e-01  1.44152e+00 -7.55222e-01             
       N -2.22249e-01 -3.83017e-02  7.99308e-01             
       C  3.47451e-01  5.58892e-01  1.95824e+00             
       H -9.47677e-01  3.99328e-01 -2.48583e+00             
       H -5.70668e-01 -1.13947e+00 -1.71448e+00             
       H -2.06988e+00 -3.62634e-01 -1.18591e+00             
       H  5.51324e-01 -1.85574e-01  2.73769e+00             
       H  1.27859e+00  1.07318e+00  1.69661e+00             
       H -2.92635e-01  1.29765e+00  2.48415e+00             
       H -1.06786e+00 -5.67330e-01  9.47091e-01             
12                                                          
# CELL(abcABC):  100.00000   100.00000   100.00000    90.00000    90.00000    90.00000  Step:      250000  Bead:       0 x_centroid{angstrom}  cell{angstrom}   
       C -2.61740e+01 -1.29480e+01 -1.09037e+01             
       C -2.58571e+01 -1.42297e+01 -1.17354e+01             
       O -2.48010e+01 -1.47997e+01 -1.17076e+01             
       N -2.69175e+01 -1.46576e+01 -1.25258e+01             
       C -2.68280e+01 -1.58432e+01 -1.34196e+01             
       H -2.72396e+01 -1.27357e+01 -1.04749e+01             
       H -2.55700e+01 -1.29909e+01 -9.95536e+00             
       H -2.58299e+01 -1.21488e+01 -1.15326e+01             
       H -2.78343e+01 -1.59197e+01 -1.38773e+01             
       H -2.61058e+01 -1.56007e+01 -1.42376e+01             
       H -2.66443e+01 -1.67490e+01 -1.29424e+01             
       H -2.76828e+01 -1.40278e+01 -1.26951e+01             
