12                                                          
# CELL(abcABC):  100.00000   100.00000   100.00000    90.00000    90.00000    90.00000  Step:           0  Bead:       0 x_centroid{angstrom}  cell{angstrom}   
       C -3.79122e-01 -1.83018e-01 -1.75604e+00             
       C  7.92245e-02  3.57955e-01 -4.28344e-01             
       O  1.14305e+00  9.88035e-01 -3.02932e-01             
       N -7.69608e-01  2.45751e-01  6.15344e-01             
       C -5.32621e-01  8.65733e-01  1.87381e+00             
       H  5.00236e-01 -6.96258e-01 -2.05683e+00             
       H -1.18638e+00 -8.65991e-01 -1.64175e+00             
       H -5.25073e-01  5.67621e-01 -2.51418e+00             
       H -1.39535e+00  1.48149e+00  2.16209e+00             
       H -4.89790e-01  1.34759e-01  2.64242e+00             
       H  3.34144e-01  1.54271e+00  1.83751e+00             
       H -1.57903e+00 -2.56878e-01  5.23982e-01             
12                                                          
# CELL(abcABC):  100.00000   100.00000   100.00000    90.00000    90.00000    90.00000  Step:      250000  Bead:       0 x_centroid{angstrom}  cell{angstrom}   
       C -6.35330e+01 -3.46073e+01 -3.01327e+01             
       C -6.38187e+01 -3.60687e+01 -2.97541e+01             
       O -6.29138e+01 -3.68252e+01 -2.94464e+01             
       N -6.51552e+01 -3.64889e+01 -2.99184e+01             
       C -6.55449e+01 -3.79060e+01 -2.94814e+01             
       H -6.35127e+01 -3.45467e+01 -3.12596e+01             
       H -6.44203e+01 -3.40340e+01 -2.98883e+01             
       H -6.26520e+01 -3.42198e+01 -2.97232e+01             
       H -6.46711e+01 -3.85074e+01 -2.93631e+01             
       H -6.59711e+01 -3.77768e+01 -2.84485e+01             
       H -6.63345e+01 -3.82353e+01 -3.02073e+01             
       H -6.57066e+01 -3.58087e+01 -3.04035e+01             
