12                                                          
# CELL(abcABC):  100.00000   100.00000   100.00000    90.00000    90.00000    90.00000  Step:           0  Bead:       0 x_centroid{angstrom}  cell{angstrom}   
       C  1.25908e+00 -6.70605e-01 -7.61102e-01             
       C  3.56223e-01  3.45041e-01 -8.73950e-02             
       O  8.36657e-01  1.42499e+00  3.14909e-01             
       N -9.79165e-01  1.02150e-01  4.54617e-02             
       C -1.89891e+00  1.06215e+00  5.67130e-01             
       H  1.93580e+00 -1.83755e-01 -1.43540e+00             
       H  1.97518e+00 -1.13993e+00 -8.74991e-03             
       H  7.91319e-01 -1.42872e+00 -1.36433e+00             
       H -1.95164e+00  1.02682e+00  1.64608e+00             
       H -1.55988e+00  2.09446e+00  3.16831e-01             
       H -2.89582e+00  8.98549e-01  7.06679e-02             
       H -1.39613e+00 -6.79791e-01 -5.07323e-01             
12                                                          
# CELL(abcABC):  100.00000   100.00000   100.00000    90.00000    90.00000    90.00000  Step:      250000  Bead:       0 x_centroid{angstrom}  cell{angstrom}   
       C -5.64954e+01 -3.39072e+01 -2.58659e+01             
       C -5.70748e+01 -3.27830e+01 -2.66871e+01             
       O -5.64587e+01 -3.21349e+01 -2.75240e+01             
       N -5.83316e+01 -3.24614e+01 -2.62056e+01             
       C -5.90240e+01 -3.13730e+01 -2.68608e+01             
       H -5.54130e+01 -3.38129e+01 -2.56402e+01             
       H -5.69585e+01 -3.40539e+01 -2.48489e+01             
       H -5.65973e+01 -3.47973e+01 -2.64652e+01             
       H -5.89892e+01 -3.14560e+01 -2.79307e+01             
       H -6.00484e+01 -3.12718e+01 -2.65082e+01             
       H -5.86071e+01 -3.04202e+01 -2.65651e+01             
       H -5.89425e+01 -3.32324e+01 -2.60088e+01             
