12                                                          
# CELL(abcABC):  100.00000   100.00000   100.00000    90.00000    90.00000    90.00000  Step:           0  Bead:       0 x_centroid{angstrom}  cell{angstrom}   
       C -1.45150e+00 -6.82571e-01 -6.71869e-01             
       C -2.06069e-01  7.02598e-02 -2.46429e-01             
       O  8.17692e-01  5.53669e-02 -9.61625e-01             
       N -3.48286e-01  9.63935e-01  7.49511e-01             
       C  7.01912e-01  1.82609e+00  1.19365e+00             
       H -1.16417e+00 -1.67169e+00 -1.13514e+00             
       H -2.16612e+00 -7.42565e-01  1.66523e-01             
       H -1.88706e+00 -4.74978e-02 -1.50642e+00             
       H  2.67135e-01  2.77401e+00  1.45717e+00             
       H  1.25875e+00  1.43349e+00  2.03840e+00             
       H  1.34926e+00  2.01252e+00  3.41752e-01             
       H -1.22330e+00  9.12116e-01  1.20570e+00             
12                                                          
# CELL(abcABC):  100.00000   100.00000   100.00000    90.00000    90.00000    90.00000  Step:      250000  Bead:       0 x_centroid{angstrom}  cell{angstrom}   
       C -2.44324e+01 -1.14143e+01 -1.02686e+01             
       C -2.31042e+01 -1.22101e+01 -1.04905e+01             
       O -2.20191e+01 -1.17836e+01 -1.00264e+01             
       N -2.32433e+01 -1.34990e+01 -1.10731e+01             
       C -2.20927e+01 -1.44697e+01 -1.11797e+01             
       H -2.41934e+01 -1.03050e+01 -1.03314e+01             
       H -2.51867e+01 -1.16214e+01 -1.10935e+01             
       H -2.47656e+01 -1.17001e+01 -9.21774e+00             
       H -2.17045e+01 -1.42404e+01 -1.21679e+01             
       H -2.12539e+01 -1.42990e+01 -1.04719e+01             
       H -2.23922e+01 -1.55290e+01 -1.10705e+01             
       H -2.41525e+01 -1.38554e+01 -1.12636e+01             
