12                                                          
# CELL(abcABC):  100.00000   100.00000   100.00000    90.00000    90.00000    90.00000  Step:           0  Bead:       0 x_centroid{angstrom}  cell{angstrom}   
       C -1.04435e+00  1.28972e+00  9.23431e-01             
       C -8.85211e-01  2.58609e-01 -2.37662e-01             
       O -1.01207e-01  4.67144e-01 -1.17842e+00             
       N -1.68794e+00 -8.20586e-01 -2.38494e-01             
       C -1.60660e+00 -1.67264e+00 -1.40200e+00             
       H -1.23204e-01  1.17343e+00  1.57774e+00             
       H -9.03980e-01  2.28437e+00  4.12756e-01             
       H -1.96326e+00  1.19519e+00  1.48062e+00             
       H -5.77063e-01 -1.80694e+00 -1.67037e+00             
       H -2.09839e+00 -2.61046e+00 -1.18293e+00             
       H -2.23446e+00 -1.23637e+00 -2.27093e+00             
       H -2.48496e+00 -7.91972e-01  3.49424e-01             
12                                                          
# CELL(abcABC):  100.00000   100.00000   100.00000    90.00000    90.00000    90.00000  Step:      250000  Bead:       0 x_centroid{angstrom}  cell{angstrom}   
       C -3.55019e+01 -2.13129e+01 -1.81885e+01             
       C -3.56909e+01 -2.04590e+01 -1.69061e+01             
       O -3.50704e+01 -2.06645e+01 -1.58610e+01             
       N -3.67516e+01 -1.96069e+01 -1.68479e+01             
       C -3.69943e+01 -1.88821e+01 -1.55444e+01             
       H -3.59613e+01 -2.09167e+01 -1.91616e+01             
       H -3.44523e+01 -2.12828e+01 -1.84505e+01             
       H -3.59532e+01 -2.23447e+01 -1.80991e+01             
       H -3.78477e+01 -1.82588e+01 -1.56381e+01             
       H -3.71567e+01 -1.96132e+01 -1.46808e+01             
       H -3.60867e+01 -1.82808e+01 -1.52295e+01             
       H -3.73787e+01 -1.96056e+01 -1.76333e+01             
