12                                                          
# CELL(abcABC):  100.00000   100.00000   100.00000    90.00000    90.00000    90.00000  Step:           0  Bead:       0 x_centroid{angstrom}  cell{angstrom}   
       C -1.22566e+00  1.70205e+00 -8.46634e-01             
       C -1.65267e-01  9.23797e-01 -1.16764e-01             
       O  7.35202e-01  1.43151e+00  5.40837e-01             
       N -2.78135e-01 -4.34895e-01 -2.28410e-01             
       C  4.84090e-01 -1.26738e+00  6.91251e-01             
       H -2.28754e+00  1.45757e+00 -5.43905e-01             
       H -1.05815e+00  2.81434e+00 -7.62827e-01             
       H -1.26859e+00  1.43754e+00 -1.91812e+00             
       H  3.75037e-01 -9.01331e-01  1.68609e+00             
       H  1.70010e-01 -2.29960e+00  4.72090e-01             
       H  1.52367e+00 -1.26665e+00  3.47487e-01             
       H -1.26669e+00 -6.98865e-01 -4.53172e-01             
12                                                          
# CELL(abcABC):  100.00000   100.00000   100.00000    90.00000    90.00000    90.00000  Step:      250000  Bead:       0 x_centroid{angstrom}  cell{angstrom}   
       C -5.06361e+01 -2.86786e+01 -2.29868e+01             
       C -4.92342e+01 -2.80769e+01 -2.28583e+01             
       O -4.82126e+01 -2.87373e+01 -2.31038e+01             
       N -4.91713e+01 -2.68097e+01 -2.24052e+01             
       C -4.79024e+01 -2.60473e+01 -2.21829e+01             
       H -5.13969e+01 -2.80680e+01 -2.35501e+01             
       H -5.06769e+01 -2.97229e+01 -2.34757e+01             
       H -5.10240e+01 -2.89232e+01 -2.19896e+01             
       H -4.80012e+01 -2.53545e+01 -2.13433e+01             
       H -4.71892e+01 -2.68709e+01 -2.20550e+01             
       H -4.75808e+01 -2.54699e+01 -2.29953e+01             
       H -5.00384e+01 -2.62715e+01 -2.23301e+01             
