12                                                          
# CELL(abcABC):  100.00000   100.00000   100.00000    90.00000    90.00000    90.00000  Step:           0  Bead:       0 x_centroid{angstrom}  cell{angstrom}   
       C -1.74921e+00  1.14010e+00 -5.77485e-01             
       C -3.11045e-01  8.43079e-01 -2.11687e-01             
       O  6.31895e-01  1.60083e+00 -3.07638e-01             
       N -1.63952e-01 -4.55069e-01  2.19116e-01             
       C  1.07917e+00 -8.05323e-01  8.99121e-01             
       H -1.85620e+00  9.95509e-01 -1.65937e+00             
       H -2.43916e+00  6.95740e-01  1.24993e-01             
       H -1.93387e+00  2.23145e+00 -5.53176e-01             
       H  1.05881e+00 -4.12818e-01  1.90755e+00             
       H  1.40007e+00 -1.83135e+00  9.75730e-01             
       H  1.90465e+00 -3.43694e-01  3.52185e-01             
       H -1.00955e+00 -1.04879e+00  3.79219e-01             
12                                                          
# CELL(abcABC):  100.00000   100.00000   100.00000    90.00000    90.00000    90.00000  Step:      250000  Bead:       0 x_centroid{angstrom}  cell{angstrom}   
       C -3.08321e+01 -1.77045e+01 -1.41825e+01             
       C -2.96881e+01 -1.66623e+01 -1.40390e+01             
       O -2.89988e+01 -1.63573e+01 -1.50050e+01             
       N -2.95133e+01 -1.62511e+01 -1.26977e+01             
       C -2.85320e+01 -1.52683e+01 -1.23303e+01             
       H -3.13266e+01 -1.80884e+01 -1.32637e+01             
       H -3.16119e+01 -1.72318e+01 -1.47695e+01             
       H -3.05230e+01 -1.85674e+01 -1.47011e+01             
       H -2.90362e+01 -1.44492e+01 -1.17741e+01             
       H -2.76738e+01 -1.56169e+01 -1.16983e+01             
       H -2.81487e+01 -1.48462e+01 -1.32865e+01             
       H -2.99819e+01 -1.68186e+01 -1.19542e+01             
