12                                                          
# CELL(abcABC):  100.00000   100.00000   100.00000    90.00000    90.00000    90.00000  Step:           0  Bead:       0 x_centroid{angstrom}  cell{angstrom}   
       C -2.02210e+00 -5.45740e-01  9.88928e-01             
       C -1.83145e+00 -4.99603e-01 -5.22220e-01             
       O -9.76437e-01  1.57390e-01 -1.11425e+00             
       N -2.68600e+00 -1.35453e+00 -1.19981e+00             
       C -2.90137e+00 -1.18821e+00 -2.65749e+00             
       H -2.01688e+00 -1.69509e+00  1.04914e+00             
       H -1.16113e+00 -9.73493e-02  1.52296e+00             
       H -2.98355e+00 -2.17666e-01  1.34877e+00             
       H -2.77684e+00 -1.35446e-01 -2.97440e+00             
       H -2.12171e+00 -1.78450e+00 -3.01790e+00             
       H -3.84750e+00 -1.63998e+00 -3.04364e+00             
       H -3.59846e+00 -1.41951e+00 -7.43049e-01             
12                                                          
# CELL(abcABC):  100.00000   100.00000   100.00000    90.00000    90.00000    90.00000  Step:      250000  Bead:       0 x_centroid{angstrom}  cell{angstrom}   
       C -3.00205e+01 -1.46357e+01 -1.29543e+01             
       C -2.91507e+01 -1.57859e+01 -1.35537e+01             
       O -2.82911e+01 -1.56628e+01 -1.44092e+01             
       N -2.95022e+01 -1.69705e+01 -1.30536e+01             
       C -2.92137e+01 -1.83229e+01 -1.36108e+01             
       H -3.04691e+01 -1.41252e+01 -1.38380e+01             
       H -3.08290e+01 -1.49335e+01 -1.22982e+01             
       H -2.94154e+01 -1.40128e+01 -1.23346e+01             
       H -3.00056e+01 -1.86960e+01 -1.42853e+01             
       H -2.82740e+01 -1.83181e+01 -1.42317e+01             
       H -2.91738e+01 -1.90460e+01 -1.28229e+01             
       H -3.02081e+01 -1.70480e+01 -1.23647e+01             
