192                                                         
# CELL(abcABC):   12.41850    12.41850    12.41850    90.00000    90.00000    90.00000  Step:           0  Bead:       0 x_centroid{angstrom}  cell{angstrom}   
       O -7.24044e+01 -1.06489e+01  6.08862e+01             
       H -7.18767e+01 -1.09860e+01  6.01176e+01             
       H -7.16960e+01 -1.05693e+01  6.15756e+01             
       O -6.31089e+01 -6.60705e+00  6.18188e+01             
       H -6.09071e+01 -1.69230e+01  5.42632e+01             
       H -6.25074e+01 -6.88862e+00  6.11436e+01             
       O -6.70133e+01 -2.39610e+01  4.57862e+01             
       H -6.62250e+01 -1.20298e+01  4.56010e+01             
       H -6.67197e+01 -2.33306e+01  4.63854e+01             
       O -6.29084e+01 -2.49495e+01  5.16137e+01             
       H -6.23469e+01 -2.42348e+01  5.12655e+01             
       H -6.25308e+01 -2.57300e+01  5.12851e+01             
       O -5.03912e+01 -1.98762e+01  5.33041e+01             
       H -4.98902e+01 -1.99424e+01  5.41595e+01             
       H -4.98379e+01 -1.93662e+01  5.26572e+01             
       O -5.34403e+01 -1.75472e+01  6.38471e+01             
       H -5.27561e+01 -1.70965e+01  6.33612e+01             
       H -5.31462e+01 -1.77158e+01  6.47744e+01             
       O -6.78038e+01 -1.99301e+01  4.22061e+01             
       H -6.70530e+01 -1.94002e+01  4.19066e+01             
       H -5.39690e+01  2.72824e+00  5.32213e+01             
       O -5.16007e+01 -1.65214e+01  6.77238e+01             
       H -5.20493e+01 -1.57029e+01  6.74737e+01             
       H -5.06903e+01 -2.88330e+01  6.74177e+01             
       O -7.28361e+01 -1.04645e+01  4.43676e+01             
       H -7.18895e+01 -1.02557e+01  4.42844e+01             
       H -7.29704e+01 -1.09267e+01  4.34436e+01             
       O -6.55211e+01 -2.56729e+01  4.95640e+01             
       H -6.50972e+01 -2.65273e+01  4.97091e+01             
       H -6.48795e+01 -2.52157e+01  4.90269e+01             
       O -7.02721e+01 -7.24674e+00  5.85544e+01             
       H -6.96465e+01 -6.66501e+00  5.81683e+01             
       H -7.00258e+01 -7.30882e+00  5.94676e+01             
       O -6.63668e+01 -9.30925e+00  4.73959e+01             
       H -6.61866e+01 -8.58887e+00  4.67975e+01             
       H -5.25643e+01 -1.34853e+01  4.24064e+01             
       O -6.10505e+01 -3.03804e+01  4.63122e+01             
       H -6.02616e+01 -3.06367e+01  4.59125e+01             
       H -5.95927e+01 -2.69844e+01  5.58974e+01             
       O -7.21284e+01 -1.48760e+01  5.04059e+01             
       H -7.17282e+01 -1.40603e+01  5.07311e+01             
       H -7.15599e+01 -1.55907e+01  5.06504e+01             
       O -5.12457e+01 -2.45439e+01  5.57197e+01             
       H -5.13855e+01 -2.36606e+01  5.59682e+01             
       H -5.03324e+01 -2.45798e+01  5.53083e+01             
       O -6.40969e+01 -1.15706e+01  6.04395e+01             
       H -6.40749e+01 -1.06827e+01  6.06872e+01             
       H -6.34329e+01 -1.17930e+01  5.97842e+01             
       O -6.64981e+01 -9.34552e+00  4.39683e+01             
       H -6.56517e+01 -2.13910e+01  4.41427e+01             
       H -6.66271e+01 -1.00624e+01  4.45766e+01             
       O -6.57196e+01 -2.50025e+01  3.96677e+01             
       H -6.47595e+01 -2.49336e+01  3.97880e+01             
       H -6.57158e+01 -2.52419e+01  3.87228e+01             
       O -7.42260e+01 -1.03360e+01  5.07429e+01             
       H -7.33300e+01 -1.01716e+01  5.10866e+01             
       H -7.41155e+01 -1.02367e+01  4.97781e+01             
       O -6.72334e+01  6.25724e+00  4.49453e+01             
       H -4.45714e+01 -1.79392e+01  4.85560e+01             
       H -6.68374e+01  5.48479e+00  4.44834e+01             
       O -5.88478e+01 -1.45218e+01  5.83169e+01             
       H -6.10894e+01 -2.11134e+01  5.57443e+01             
       H -7.05880e+01 -1.51144e+01  5.80805e+01             
       O -6.09594e+01 -3.09799e+01  5.16949e+01             
       H -6.05242e+01 -3.02292e+01  5.21093e+01             
       H -6.02204e+01 -3.14566e+01  5.13301e+01             
       O -7.00398e+01 -1.78299e+01  5.61056e+01             
       H -6.93832e+01 -1.84173e+01  5.58543e+01             
       H -6.95447e+01 -1.69895e+01  5.62554e+01             
       O -5.80520e+01 -4.16957e+01  5.12408e+01             
       H -5.71086e+01 -4.14811e+01  5.10858e+01             
       H -5.80487e+01 -4.26119e+01  6.33607e+01             
       O -6.36898e+01 -2.75238e+00  4.72121e+01             
       H -6.37002e+01 -3.52820e+00  4.66649e+01             
       H -6.27510e+01 -2.59476e+00  4.72312e+01             
       O -5.80233e+01 -2.43141e+01  5.92222e+01             
       H -5.74151e+01 -2.39894e+01  5.99181e+01             
       H -5.77131e+01 -2.37965e+01  5.84298e+01             
       O -6.43174e+01 -2.20992e+01  6.48424e+01             
       H -6.36490e+01 -2.14023e+01  6.49265e+01             
       H -6.38696e+01 -2.28115e+01  6.43397e+01             
       O -7.95669e+01 -1.94694e+01  4.98499e+01             
       H -7.87400e+01 -1.98906e+01  4.94893e+01             
       H -7.91064e+01 -1.87907e+01  5.04257e+01             
       O -5.58163e+01 -1.09332e+00  6.47812e+01             
       H -5.49445e+01 -6.21191e-01  6.48548e+01             
       H -5.55679e+01 -1.84541e+00  6.41970e+01             
       O -6.11906e+01 -1.21017e+01  4.22427e+01             
       H -6.06056e+01 -1.28596e+01  4.24629e+01             
       H -6.08643e+01 -1.17546e+01  2.89753e+01             
       O -5.78056e+01 -1.52073e+01  2.87801e+01             
       H -5.77770e+01 -1.60494e+01  2.82634e+01             
       H -6.95042e+01 -1.46631e+01  2.85107e+01             
       O -5.19857e+01 -1.58644e+01  2.49999e+01             
       H -5.16895e+01 -1.59673e+01  2.39987e+01             
       H -5.11153e+01 -1.58121e+01  2.55485e+01             
       O -5.66776e+01 -2.28735e+01  3.61397e+01             
       H -5.58850e+01 -2.26615e+01  3.55884e+01             
       H -5.66561e+01 -2.22277e+01  4.92786e+01             
       O -5.79271e+01 -1.27657e+01  3.81156e+01             
       H -6.31778e+01 -9.23265e+00  4.58896e+01             
       H -5.72323e+01 -1.27520e+01  3.88669e+01             
       O -5.93448e+01 -2.31315e+01  5.17253e+01             
       H -5.89388e+01 -2.38709e+01  5.12281e+01             
       H -5.86022e+01 -2.28687e+01  5.22696e+01             
       O -4.99689e+01 -1.52769e+01  3.89571e+01             
       H -4.99340e+01 -1.56026e+01  3.98671e+01             
       H -4.90913e+01 -1.53850e+01  3.86047e+01             
       O -5.40216e+01 -2.89062e+01  4.78755e+01             
       H -5.33274e+01 -2.86114e+01  4.84639e+01             
       H -5.39535e+01 -2.85548e+01  4.69533e+01             
       O -6.07878e+01 -2.44767e+00  5.99923e+01             
       H -6.00236e+01 -2.42711e+00  5.94071e+01             
       H -6.04214e+01 -2.48057e+00  6.08818e+01             
       O -5.41093e+01  9.30595e+00  7.01996e+01             
       H -5.37781e+01  8.79100e+00  6.94513e+01             
       H -5.37102e+01  1.01176e+01  7.00056e+01             
       O -5.97569e+01 -2.66421e+01  5.49990e+01             
       H -6.74213e+01 -2.05382e+01  4.28532e+01             
       H -5.90400e+01 -2.69273e+01  5.44310e+01             
       O -6.15758e+01 -1.62197e+01  5.41006e+01             
       H -5.73409e+01 -1.30378e+01  3.73762e+01             
       H -6.11229e+01 -1.54653e+01  5.44939e+01             
       O -5.33052e+01 -1.41296e+01  4.22321e+01             
       H -6.67834e+01 -6.17808e+00  4.58332e+01             
       H -5.33965e+01 -1.41465e+01  4.12572e+01             
       O -5.55272e+01 -2.82602e+01  5.09923e+01             
       H -6.72519e+01 -2.89218e+01  6.37023e+01             
       H -4.99588e+01 -6.55673e+00  6.24860e+01             
       O -8.97650e+01 -1.34504e+01  5.79207e+01             
       H -8.91280e+01 -1.30906e+01  5.72527e+01             
       H -8.92664e+01 -1.39747e+01  5.85484e+01             
       O -5.70536e+01 -3.12997e+01  4.87267e+01             
       H -5.62666e+01 -3.15269e+01  4.91799e+01             
       H -5.83683e+01 -1.36926e+01  5.84576e+01             
       O -6.36603e+01 -8.77862e+00  4.52176e+01             
       H -6.29404e+01 -8.25212e+00  4.48481e+01             
       H -7.67931e+01 -1.88484e+01  2.89804e+01             
       O -7.40106e+01 -2.05436e+01  4.78232e+01             
       H -7.35706e+01 -2.02363e+01  4.70263e+01             
       H -7.33687e+01 -2.11721e+01  4.82213e+01             
       O -5.72124e+01 -2.30620e+01  4.15453e+01             
       H -5.62647e+01 -2.28158e+01  4.13865e+01             
       H -5.71828e+01 -2.38852e+01  4.20430e+01             
       O -4.32588e+01 -2.61031e+01  4.85620e+01             
       H -4.24189e+01 -1.33265e+01  4.90266e+01             
       H -4.30803e+01 -2.58281e+01  4.76185e+01             
       O -5.80898e+01 -7.52666e+00  5.39212e+01             
       H -4.56410e+01 -8.48139e+00  5.38164e+01             
       H -5.71538e+01 -7.32009e+00  5.40201e+01             
       O -5.47737e+01  2.31591e+00  5.29055e+01             
       H -6.07322e+01 -2.96153e+01  4.68062e+01             
       H -6.57309e+01  3.35765e+00  4.80491e+01             
       O -6.91406e+01 -1.63087e+01  4.80538e+01             
       H -6.96409e+01 -1.56115e+01  4.84973e+01             
       H -6.82092e+01 -1.60189e+01  4.80194e+01             
       O -6.56379e+01 -6.66942e+00  3.47105e+01             
       H -6.48257e+01 -1.86327e+01  3.43917e+01             
       H -6.60011e+01 -5.90539e+00  3.52048e+01             
       O -7.22463e+01 -1.81838e+01  5.47845e+01             
       H -7.16453e+01 -1.77766e+01  5.54221e+01             
       H -7.17100e+01 -1.88598e+01  5.43074e+01             
       O -6.36759e+01 -1.74661e+01  5.81566e+01             
       H -6.39031e+01 -1.74446e+01  5.72144e+01             
       H -6.27859e+01 -1.77977e+01  5.82643e+01             
       O -7.40003e+01 -2.02492e+01  4.34284e+01             
       H -7.33591e+01 -1.94776e+01  5.58917e+01             
       H -6.77666e+01 -4.05322e+01  3.76077e+01             
       O -5.25955e+01 -2.08885e+01  6.19293e+01             
       H -5.18589e+01 -2.03190e+01  6.17781e+01             
       H -5.23196e+01 -2.12450e+01  6.27732e+01             
       O -5.87372e+01 -1.96922e+01  5.05928e+01             
       H -5.80940e+01 -2.01348e+01  5.11756e+01             
       H -5.82769e+01 -1.94644e+01  4.97877e+01             
       O -8.23848e+01 -2.22676e+01  5.70028e+01             
       H -8.23592e+01 -2.14797e+01  5.75747e+01             
       H -8.16154e+01 -2.22470e+01  5.64366e+01             
       O -5.66022e+01 -2.10992e+01  5.11855e+01             
       H -5.59401e+01 -2.06313e+01  5.06785e+01             
       H -5.62247e+01 -2.15176e+01  5.19723e+01             
       O -7.45469e+01 -1.23968e+01  2.12724e+01             
       H -7.41128e+01 -1.15958e+01  2.09956e+01             
       H -7.37603e+01 -1.28863e+01  2.15882e+01             
       O -6.52668e+01 -1.85682e+01  2.91489e+01             
       H -4.20616e+01 -1.09766e+01  4.01463e+01             
       H -6.52301e+01 -1.79337e+01  2.98106e+01             
       O -6.84252e+01 -1.31633e+01  5.53757e+01             
       H -6.80685e+01 -1.24578e+01  5.59326e+01             
       H -6.76157e+01 -1.34531e+01  5.49229e+01             
       O -6.89488e+01 -1.55800e+01  6.92714e+01             
       H -6.87652e+01 -1.47973e+01  6.87253e+01             
       H -6.82611e+01 -1.56401e+01  6.99796e+01             
192                                                         
# CELL(abcABC):   12.41850    12.41850    12.41850    90.00000    90.00000    90.00000  Step:      200000  Bead:       0 x_centroid{angstrom}  cell{angstrom}   
       O -8.39153e+01 -1.26873e+01  6.75072e+01             
       H -8.32269e+01 -1.33954e+01  6.75484e+01             
       H -8.34138e+01 -1.19190e+01  6.72992e+01             
       O -7.37297e+01 -1.10550e+01  7.21919e+01             
       H -7.00962e+01 -2.43757e+01  6.32243e+01             
       H -7.33622e+01 -1.13550e+01  7.13556e+01             
       O -8.01296e+01 -2.91837e+01  4.92561e+01             
       H -7.91734e+01 -1.71213e+01  4.94569e+01             
       H -8.00707e+01 -2.86980e+01  4.83982e+01             
       O -7.31412e+01 -2.39346e+01  5.69534e+01             
       H -7.25151e+01 -2.31788e+01  5.67895e+01             
       H -7.27122e+01 -2.45472e+01  5.63332e+01             
       O -6.17485e+01 -1.85556e+01  5.68122e+01             
       H -6.13399e+01 -1.82326e+01  5.59842e+01             
       H -6.10455e+01 -1.89552e+01  5.74213e+01             
       O -6.41707e+01 -1.85156e+01  7.01574e+01             
       H -6.40213e+01 -1.82158e+01  7.11124e+01             
       H -6.32991e+01 -1.87001e+01  6.97720e+01             
       O -7.79474e+01 -2.59441e+01  4.89768e+01             
       H -7.80416e+01 -2.65334e+01  4.97577e+01             
       H -6.41798e+01 -9.98876e-01  5.53570e+01             
       O -6.16720e+01 -1.89041e+01  7.43434e+01             
       H -6.17205e+01 -1.98421e+01  7.42158e+01             
       H -6.08758e+01 -3.10812e+01  7.37151e+01             
       O -8.54010e+01 -1.44061e+01  4.92118e+01             
       H -8.45371e+01 -1.38854e+01  4.93005e+01             
       H -8.53136e+01 -1.49814e+01  4.84311e+01             
       O -7.78252e+01 -2.70522e+01  5.16289e+01             
       H -7.71552e+01 -2.77726e+01  5.17422e+01             
       H -7.75153e+01 -2.63402e+01  5.21768e+01             
       O -8.21772e+01 -1.02371e+01  6.68632e+01             
       H -8.15846e+01 -9.81881e+00  6.61902e+01             
       H -8.15363e+01 -1.07366e+01  6.74208e+01             
       O -7.85812e+01 -1.13671e+01  5.13725e+01             
       H -7.79496e+01 -1.06746e+01  5.11952e+01             
       H -6.10319e+01 -1.52632e+01  5.08453e+01             
       O -7.21375e+01 -3.28862e+01  5.31268e+01             
       H -7.12984e+01 -3.24112e+01  5.27380e+01             
       H -7.09821e+01 -3.06673e+01  6.05502e+01             
       O -8.49465e+01 -1.63603e+01  5.53801e+01             
       H -8.44991e+01 -1.59670e+01  5.46095e+01             
       H -8.44928e+01 -1.61555e+01  5.62355e+01             
       O -6.15958e+01 -2.45012e+01  6.60559e+01             
       H -6.13584e+01 -2.38419e+01  6.53100e+01             
       H -6.07966e+01 -2.49397e+01  6.65002e+01             
       O -7.57468e+01 -1.01900e+01  6.70731e+01             
       H -7.57145e+01 -1.01708e+01  6.80544e+01             
       H -7.50429e+01 -1.08539e+01  6.68435e+01             
       O -7.57008e+01 -1.75335e+01  4.77529e+01             
       H -7.50459e+01 -2.92476e+01  4.75033e+01             
       H -7.51023e+01 -1.81012e+01  4.83273e+01             
       O -7.51267e+01 -2.85633e+01  4.23695e+01             
       H -7.41853e+01 -2.86214e+01  4.26587e+01             
       H -7.52088e+01 -2.81222e+01  4.15399e+01             
       O -8.33442e+01 -9.79210e+00  5.68251e+01             
       H -8.27917e+01 -1.04543e+01  5.73645e+01             
       H -8.28463e+01 -9.75915e+00  5.59870e+01             
       O -8.13592e+01 -2.73748e+00  5.11364e+01             
       H -5.42732e+01 -2.00430e+01  5.07025e+01             
       H -8.06225e+01 -2.32050e+00  5.17080e+01             
       O -6.94961e+01 -1.87302e+01  6.13376e+01             
       H -7.45304e+01 -2.61906e+01  6.07929e+01             
       H -8.15459e+01 -1.95754e+01  6.10687e+01             
       O -7.01515e+01 -3.15649e+01  5.58307e+01             
       H -6.96697e+01 -3.08577e+01  5.53360e+01             
       H -6.94879e+01 -3.20719e+01  5.63338e+01             
       O -8.07924e+01 -2.22985e+01  6.43387e+01             
       H -8.00218e+01 -2.28793e+01  6.42919e+01             
       H -8.06214e+01 -2.13748e+01  6.39280e+01             
       O -7.17993e+01 -4.45619e+01  5.80211e+01             
       H -7.12531e+01 -4.40041e+01  5.74329e+01             
       H -7.14817e+01 -4.53858e+01  7.01035e+01             
       O -7.61335e+01 -4.49214e+00  5.15180e+01             
       H -7.63864e+01 -4.90762e+00  5.24193e+01             
       H -7.51532e+01 -4.28680e+00  5.14932e+01             
       O -6.92104e+01 -2.67083e+01  6.77512e+01             
       H -6.86335e+01 -2.59043e+01  6.79805e+01             
       H -6.86360e+01 -2.73224e+01  6.72280e+01             
       O -7.70871e+01 -2.55985e+01  7.08243e+01             
       H -7.63434e+01 -2.58411e+01  7.14188e+01             
       H -7.68716e+01 -2.60331e+01  7.00094e+01             
       O -9.03894e+01 -2.06074e+01  5.66536e+01             
       H -9.02716e+01 -2.14038e+01  5.72321e+01             
       H -8.98108e+01 -1.99631e+01  5.71049e+01             
       O -6.59231e+01 -3.55251e+00  7.00517e+01             
       H -6.52954e+01 -4.35333e+00  7.01494e+01             
       H -6.52711e+01 -2.86324e+00  6.98369e+01             
       O -7.33538e+01 -1.61561e+01  4.68741e+01             
       H -7.27850e+01 -1.68367e+01  4.73219e+01             
       H -7.28605e+01 -1.57561e+01  3.37141e+01             
       O -6.33063e+01 -2.29703e+01  3.24848e+01             
       H -6.23433e+01 -2.31827e+01  3.25321e+01             
       H -7.61777e+01 -2.37358e+01  3.28790e+01             
       O -6.44288e+01 -1.80719e+01  2.90094e+01             
       H -6.37294e+01 -1.87051e+01  2.88379e+01             
       H -6.38640e+01 -1.74052e+01  2.94920e+01             
       O -6.78993e+01 -2.42340e+01  4.33229e+01             
       H -6.72586e+01 -2.41771e+01  4.25888e+01             
       H -6.76223e+01 -2.38505e+01  5.65802e+01             
       O -7.06594e+01 -1.56179e+01  4.50492e+01             
       H -7.51769e+01 -1.33273e+01  5.31703e+01             
       H -7.00542e+01 -1.63943e+01  4.52359e+01             
       O -6.95256e+01 -2.37004e+01  5.87363e+01             
       H -6.94099e+01 -2.47121e+01  5.89576e+01             
       H -6.85871e+01 -2.35142e+01  5.86366e+01             
       O -6.27356e+01 -2.11646e+01  4.77968e+01             
       H -6.22038e+01 -2.19731e+01  4.76750e+01             
       H -6.23597e+01 -2.05748e+01  4.71473e+01             
       O -6.64653e+01 -3.23802e+01  5.39744e+01             
       H -6.61196e+01 -3.30629e+01  5.46328e+01             
       H -6.56669e+01 -3.17865e+01  5.39525e+01             
       O -7.02394e+01 -6.52255e+00  6.40933e+01             
       H -7.00345e+01 -6.60245e+00  6.31688e+01             
       H -6.93575e+01 -6.36385e+00  6.44292e+01             
       O -6.56435e+01  4.55886e+00  7.40768e+01             
       H -6.52516e+01  5.45880e+00  7.40073e+01             
       H -6.50137e+01  3.97772e+00  7.45315e+01             
       O -7.19317e+01 -3.07019e+01  6.03296e+01             
       H -7.70181e+01 -2.61128e+01  4.87615e+01             
       H -7.19306e+01 -3.14649e+01  5.96932e+01             
       O -7.06514e+01 -2.36390e+01  6.34103e+01             
       H -7.01990e+01 -1.50523e+01  4.43796e+01             
       H -6.99988e+01 -2.30018e+01  6.38293e+01             
       O -6.12486e+01 -1.57782e+01  5.16013e+01             
       H -8.08751e+01 -1.58585e+01  5.05543e+01             
       H -6.03954e+01 -1.60198e+01  5.20714e+01             
       O -6.87853e+01 -2.96968e+01  5.84462e+01             
       H -8.12318e+01 -3.06821e+01  7.06298e+01             
       H -6.04250e+01 -1.07813e+01  7.25665e+01             
       O -1.02378e+02 -1.75665e+01  6.20283e+01             
       H -1.01819e+02 -1.72018e+01  6.13177e+01             
       H -1.01821e+02 -1.73238e+01  6.28744e+01             
       O -6.73572e+01 -3.23369e+01  5.14520e+01             
       H -6.69159e+01 -3.24836e+01  5.23276e+01             
       H -6.87840e+01 -1.80602e+01  6.13864e+01             
       O -7.54905e+01 -1.41842e+01  5.27664e+01             
       H -7.46949e+01 -1.45244e+01  5.23220e+01             
       H -8.36848e+01 -2.29126e+01  3.66064e+01             
       O -8.91589e+01 -2.17787e+01  5.10985e+01             
       H -8.86235e+01 -2.23731e+01  5.05637e+01             
       H -8.84911e+01 -2.12971e+01  5.16132e+01             
       O -6.96452e+01 -2.63072e+01  4.69459e+01             
       H -6.86666e+01 -2.66593e+01  4.70666e+01             
       H -7.01257e+01 -2.69735e+01  4.64090e+01             
       O -5.45193e+01 -2.80549e+01  5.47541e+01             
       H -5.39337e+01 -1.53964e+01  5.39920e+01             
       H -5.40716e+01 -2.76676e+01  5.54684e+01             
       O -6.80456e+01 -7.71505e+00  5.76552e+01             
       H -5.46821e+01 -7.96206e+00  5.74122e+01             
       H -6.81733e+01 -8.39265e+00  5.83520e+01             
       O -6.43395e+01 -1.76475e+00  5.59167e+01             
       H -7.16170e+01 -3.31892e+01  5.39642e+01             
       H -7.83368e+01  4.07698e-01  5.06476e+01             
       O -8.05793e+01 -1.78629e+01  5.44606e+01             
       H -8.00573e+01 -1.70967e+01  5.47268e+01             
       H -7.99558e+01 -1.86063e+01  5.43317e+01             
       O -7.52104e+01 -1.11609e+01  3.78070e+01             
       H -7.54663e+01 -2.44458e+01  3.78482e+01             
       H -7.43834e+01 -1.11287e+01  3.83095e+01             
       O -8.55027e+01 -2.28640e+01  6.41631e+01             
       H -8.46349e+01 -2.33935e+01  6.39784e+01             
       H -8.51225e+01 -2.20764e+01  6.47136e+01             
       O -7.52152e+01 -2.04008e+01  6.55448e+01             
       H -7.42751e+01 -2.03222e+01  6.52969e+01             
       H -7.52551e+01 -2.11226e+01  6.61931e+01             
       O -8.76775e+01 -2.56863e+01  4.79042e+01             
       H -8.72533e+01 -2.47584e+01  6.03917e+01             
       H -8.03020e+01 -4.19478e+01  4.57467e+01             
       O -6.57696e+01 -2.40856e+01  6.65615e+01             
       H -6.57602e+01 -2.39630e+01  6.55870e+01             
       H -6.51302e+01 -2.33605e+01  6.68780e+01             
       O -6.53102e+01 -2.16050e+01  5.93471e+01             
       H -6.54026e+01 -2.08790e+01  5.99041e+01             
       H -6.43339e+01 -2.19100e+01  5.95430e+01             
       O -9.52343e+01 -2.60605e+01  6.20353e+01             
       H -9.45468e+01 -2.66115e+01  6.25241e+01             
       H -9.49789e+01 -2.60886e+01  6.10979e+01             
       O -6.68275e+01 -2.36118e+01  5.82719e+01             
       H -6.63827e+01 -2.28769e+01  5.87538e+01             
       H -6.64519e+01 -2.44520e+01  5.86073e+01             
       O -8.35180e+01 -1.61263e+01  2.79661e+01             
       H -8.27091e+01 -1.57442e+01  2.75320e+01             
       H -8.32226e+01 -1.70095e+01  2.79479e+01             
       O -7.14121e+01 -2.27569e+01  3.56734e+01             
       H -5.12732e+01 -1.48755e+01  4.31542e+01             
       H -7.05935e+01 -2.30595e+01  3.51609e+01             
       O -7.96045e+01 -1.47718e+01  5.95955e+01             
       H -7.90295e+01 -1.40843e+01  6.00002e+01             
       H -7.91114e+01 -1.50488e+01  5.88025e+01             
       O -8.07307e+01 -2.12324e+01  7.34663e+01             
       H -8.09197e+01 -2.21376e+01  7.36642e+01             
       H -7.98345e+01 -2.10978e+01  7.38052e+01             
