192                                                         
# CELL(abcABC):   12.41850    12.41850    12.41850    90.00000    90.00000    90.00000  Step:           0  Bead:       0 x_centroid{angstrom}  cell{angstrom}   
       O -7.26253e+01 -9.27110e+00  6.13341e+01             
       H -7.22900e+01 -1.00562e+01  6.08203e+01             
       H -7.18555e+01 -8.70357e+00  6.14369e+01             
       O -6.41521e+01 -6.38425e+00  6.17503e+01             
       H -6.14630e+01 -1.70932e+01  5.41473e+01             
       H -6.35732e+01 -5.92499e+00  6.23854e+01             
       O -6.73739e+01 -2.46008e+01  4.61031e+01             
       H -6.64646e+01 -1.25294e+01  4.59620e+01             
       H -6.71169e+01 -2.38757e+01  4.66613e+01             
       O -6.34926e+01 -2.43518e+01  5.13950e+01             
       H -6.28223e+01 -2.36694e+01  5.11192e+01             
       H -6.30691e+01 -2.52211e+01  5.15479e+01             
       O -5.12114e+01 -2.08053e+01  5.37883e+01             
       H -5.08149e+01 -2.08194e+01  5.46918e+01             
       H -5.06192e+01 -2.06526e+01  5.30665e+01             
       O -5.35774e+01 -1.71076e+01  6.42666e+01             
       H -5.26697e+01 -1.68826e+01  6.40126e+01             
       H -5.35983e+01 -1.78008e+01  6.50172e+01             
       O -6.78168e+01 -1.96831e+01  4.34837e+01             
       H -6.71818e+01 -1.93542e+01  4.28309e+01             
       H -5.42403e+01  1.57804e+00  5.26950e+01             
       O -5.21120e+01 -1.67873e+01  6.79802e+01             
       H -5.26197e+01 -1.59597e+01  6.79545e+01             
       H -5.12854e+01 -2.91126e+01  6.74041e+01             
       O -7.39614e+01 -1.03067e+01  4.40945e+01             
       H -7.30780e+01 -1.05494e+01  4.43947e+01             
       H -7.38859e+01 -1.06134e+01  4.31454e+01             
       O -6.64182e+01 -2.66292e+01  4.93845e+01             
       H -6.57614e+01 -2.73034e+01  4.95836e+01             
       H -6.59281e+01 -2.58380e+01  4.89809e+01             
       O -7.06366e+01 -7.99973e+00  5.84591e+01             
       H -7.02316e+01 -7.41785e+00  5.78357e+01             
       H -7.00212e+01 -7.98659e+00  5.92391e+01             
       O -6.66844e+01 -1.02138e+01  4.79106e+01             
       H -6.64692e+01 -9.31188e+00  4.76306e+01             
       H -5.31470e+01 -1.30547e+01  4.25002e+01             
       O -6.01320e+01 -2.99615e+01  4.64801e+01             
       H -5.97748e+01 -3.06631e+01  4.59580e+01             
       H -6.07100e+01 -2.63631e+01  5.57677e+01             
       O -7.24954e+01 -1.44509e+01  5.01698e+01             
       H -7.18340e+01 -1.37853e+01  5.04574e+01             
       H -7.20380e+01 -1.52765e+01  5.03097e+01             
       O -5.21946e+01 -2.44099e+01  5.66584e+01             
       H -5.21297e+01 -2.40097e+01  5.75828e+01             
       H -5.14444e+01 -2.39778e+01  5.62853e+01             
       O -6.50129e+01 -1.20727e+01  6.13041e+01             
       H -6.45359e+01 -1.19492e+01  6.21311e+01             
       H -6.41903e+01 -1.22654e+01  6.07004e+01             
       O -6.60243e+01 -9.39157e+00  4.40495e+01             
       H -6.57159e+01 -2.23446e+01  4.33017e+01             
       H -6.52461e+01 -9.34357e+00  4.46595e+01             
       O -6.58090e+01 -2.55856e+01  3.95531e+01             
       H -6.49485e+01 -2.51157e+01  3.94203e+01             
       H -6.59735e+01 -2.59806e+01  3.87243e+01             
       O -7.42730e+01 -9.86397e+00  5.09795e+01             
       H -7.36041e+01 -1.00658e+01  5.16475e+01             
       H -7.36934e+01 -9.57188e+00  5.02436e+01             
       O -6.83246e+01  6.21189e+00  4.59552e+01             
       H -4.50640e+01 -1.84732e+01  4.84302e+01             
       H -6.81958e+01  6.04526e+00  4.49986e+01             
       O -5.94263e+01 -1.39264e+01  5.73987e+01             
       H -6.18801e+01 -2.08372e+01  5.65328e+01             
       H -7.12048e+01 -1.45648e+01  5.69774e+01             
       O -6.15424e+01 -3.07823e+01  5.17096e+01             
       H -6.12773e+01 -2.98194e+01  5.16555e+01             
       H -6.07834e+01 -3.12594e+01  5.13303e+01             
       O -7.05972e+01 -1.85958e+01  5.59710e+01             
       H -7.00724e+01 -1.91528e+01  5.54546e+01             
       H -7.01592e+01 -1.77540e+01  5.59843e+01             
       O -5.85762e+01 -4.14696e+01  5.15463e+01             
       H -5.86132e+01 -4.23447e+01  5.18634e+01             
       H -5.76376e+01 -4.12781e+01  6.37840e+01             
       O -6.31816e+01 -3.31010e+00  4.70994e+01             
       H -6.28695e+01 -4.15470e+00  4.66507e+01             
       H -6.24152e+01 -2.70339e+00  4.69104e+01             
       O -5.91012e+01 -2.36091e+01  5.98338e+01             
       H -5.83131e+01 -2.32658e+01  6.02609e+01             
       H -5.89816e+01 -2.34032e+01  5.88322e+01             
       O -6.48985e+01 -2.31357e+01  6.63686e+01             
       H -6.44820e+01 -2.22263e+01  6.62198e+01             
       H -6.42709e+01 -2.36644e+01  6.58581e+01             
       O -7.96413e+01 -1.97127e+01  5.04108e+01             
       H -7.89880e+01 -2.04036e+01  5.04735e+01             
       H -7.91457e+01 -1.89092e+01  5.05562e+01             
       O -5.65025e+01 -1.41068e+00  6.48064e+01             
       H -5.59010e+01 -7.17349e-01  6.50816e+01             
       H -5.59554e+01 -1.83467e+00  6.40781e+01             
       O -6.16537e+01 -1.13428e+01  4.17124e+01             
       H -6.16699e+01 -1.22919e+01  4.18828e+01             
       H -6.08025e+01 -1.11574e+01  2.87985e+01             
       O -5.92177e+01 -1.43822e+01  2.82656e+01             
       H -5.90671e+01 -1.51709e+01  2.76540e+01             
       H -7.08014e+01 -1.39096e+01  2.83471e+01             
       O -5.14672e+01 -1.56324e+01  2.49172e+01             
       H -5.09594e+01 -1.54415e+01  2.40810e+01             
       H -5.08987e+01 -1.54285e+01  2.56821e+01             
       O -5.70291e+01 -2.31901e+01  3.66202e+01             
       H -5.61936e+01 -2.32878e+01  3.61502e+01             
       H -5.69424e+01 -2.23253e+01  4.94761e+01             
       O -5.84472e+01 -1.22957e+01  3.83909e+01             
       H -6.31488e+01 -9.22888e+00  4.66339e+01             
       H -5.77386e+01 -1.27886e+01  3.88771e+01             
       O -5.95003e+01 -2.30582e+01  5.27059e+01             
       H -5.91106e+01 -2.36887e+01  5.20710e+01             
       H -5.87870e+01 -2.24933e+01  5.31545e+01             
       O -4.99245e+01 -1.45642e+01  3.93342e+01             
       H -4.96236e+01 -1.49803e+01  4.01361e+01             
       H -4.91291e+01 -1.44841e+01  3.87149e+01             
       O -5.43728e+01 -2.91768e+01  4.84049e+01             
       H -5.34643e+01 -2.94606e+01  4.85704e+01             
       H -5.44662e+01 -2.89799e+01  4.74856e+01             
       O -6.08557e+01 -1.72710e+00  5.99692e+01             
       H -6.01974e+01 -1.64519e+00  5.92568e+01             
       H -6.04004e+01 -1.98238e+00  6.07909e+01             
       O -5.49318e+01  8.95447e+00  7.02356e+01             
       H -5.43569e+01  8.27217e+00  6.99827e+01             
       H -5.43538e+01  9.65672e+00  7.04244e+01             
       O -6.11008e+01 -2.65389e+01  5.48871e+01             
       H -6.72596e+01 -2.03991e+01  4.38707e+01             
       H -6.03390e+01 -2.66258e+01  5.42531e+01             
       O -6.20932e+01 -1.63781e+01  5.40763e+01             
       H -5.81074e+01 -1.20365e+01  3.75579e+01             
       H -6.17399e+01 -1.55582e+01  5.45651e+01             
       O -5.35132e+01 -1.38678e+01  4.22973e+01             
       H -6.75985e+01 -6.74736e+00  4.63322e+01             
       H -5.34479e+01 -1.38942e+01  4.13503e+01             
       O -5.58463e+01 -2.83789e+01  5.07468e+01             
       H -6.74840e+01 -2.86707e+01  6.36718e+01             
       H -5.11515e+01 -6.63199e+00  6.10150e+01             
       O -9.01161e+01 -1.41518e+01  5.81925e+01             
       H -8.96979e+01 -1.37922e+01  5.74427e+01             
       H -8.94365e+01 -1.46247e+01  5.86429e+01             
       O -5.74017e+01 -3.18158e+01  4.86965e+01             
       H -5.66369e+01 -3.17980e+01  4.92593e+01             
       H -5.90250e+01 -1.30696e+01  5.72709e+01             
       O -6.34529e+01 -9.83197e+00  4.58949e+01             
       H -6.27196e+01 -9.91564e+00  4.53276e+01             
       H -7.76960e+01 -1.95469e+01  2.91303e+01             
       O -7.47171e+01 -2.00878e+01  4.76103e+01             
       H -7.43983e+01 -1.94184e+01  4.69145e+01             
       H -7.39298e+01 -2.05780e+01  4.78152e+01             
       O -5.63421e+01 -2.26276e+01  4.32199e+01             
       H -5.56131e+01 -2.23110e+01  4.37279e+01             
       H -5.61473e+01 -2.33863e+01  4.27312e+01             
       O -4.40428e+01 -2.67848e+01  4.81206e+01             
       H -4.32576e+01 -1.45608e+01  4.87030e+01             
       H -4.37926e+01 -2.61837e+01  4.74357e+01             
       O -5.78781e+01 -8.81848e+00  5.40748e+01             
       H -4.48352e+01 -9.18260e+00  5.47187e+01             
       H -5.71820e+01 -8.63716e+00  5.33773e+01             
       O -5.49976e+01  1.51961e+00  5.20855e+01             
       H -5.92522e+01 -2.97310e+01  4.69593e+01             
       H -6.58984e+01  1.83529e+00  4.83100e+01             
       O -6.98227e+01 -1.69654e+01  4.76901e+01             
       H -6.93454e+01 -1.60887e+01  4.78257e+01             
       H -6.92765e+01 -1.73968e+01  4.69756e+01             
       O -6.60362e+01 -7.50855e+00  3.45248e+01             
       H -6.52800e+01 -1.95383e+01  3.40203e+01             
       H -6.57875e+01 -7.26925e+00  3.54229e+01             
       O -7.31907e+01 -1.85042e+01  5.49493e+01             
       H -7.23308e+01 -1.84982e+01  5.54240e+01             
       H -7.30221e+01 -1.89192e+01  5.40863e+01             
       O -6.37831e+01 -1.82327e+01  5.81196e+01             
       H -6.39906e+01 -1.76725e+01  5.73402e+01             
       H -6.31220e+01 -1.87992e+01  5.77392e+01             
       O -7.47971e+01 -2.00010e+01  4.40691e+01             
       H -7.41933e+01 -1.94548e+01  5.59120e+01             
       H -6.81607e+01 -4.11192e+01  3.74020e+01             
       O -5.25351e+01 -2.14724e+01  6.30470e+01             
       H -5.21644e+01 -2.06419e+01  6.26133e+01             
       H -5.18463e+01 -2.19141e+01  6.35559e+01             
       O -5.89675e+01 -1.95165e+01  5.13244e+01             
       H -5.86286e+01 -2.03333e+01  5.16795e+01             
       H -5.85278e+01 -1.94995e+01  5.04648e+01             
       O -8.36102e+01 -2.27264e+01  5.71834e+01             
       H -8.34407e+01 -2.17716e+01  5.74925e+01             
       H -8.27303e+01 -2.29360e+01  5.68137e+01             
       O -5.67702e+01 -2.11698e+01  5.15001e+01             
       H -5.62333e+01 -2.03909e+01  5.13215e+01             
       H -5.60930e+01 -2.18191e+01  5.16830e+01             
       O -7.53974e+01 -1.24024e+01  2.24746e+01             
       H -7.51866e+01 -1.15636e+01  2.20476e+01             
       H -7.46200e+01 -1.29377e+01  2.26292e+01             
       O -6.59174e+01 -1.88006e+01  2.93177e+01             
       H -4.20958e+01 -1.11447e+01  3.88464e+01             
       H -6.53724e+01 -1.83227e+01  2.99760e+01             
       O -6.82804e+01 -1.31779e+01  5.57645e+01             
       H -6.79599e+01 -1.28618e+01  5.66056e+01             
       H -6.74786e+01 -1.35006e+01  5.53057e+01             
       O -6.98097e+01 -1.55506e+01  6.87591e+01             
       H -6.94947e+01 -1.48125e+01  6.82238e+01             
       H -6.90617e+01 -1.57837e+01  6.93846e+01             
192                                                         
# CELL(abcABC):   12.41850    12.41850    12.41850    90.00000    90.00000    90.00000  Step:      200000  Bead:       0 x_centroid{angstrom}  cell{angstrom}   
       O -8.65356e+01 -1.30637e+01  6.57266e+01             
       H -8.59660e+01 -1.36314e+01  6.51742e+01             
       H -8.59657e+01 -1.23443e+01  6.60465e+01             
       O -7.52184e+01 -1.08817e+01  6.42459e+01             
       H -7.59126e+01 -1.70687e+01  5.87460e+01             
       H -7.45799e+01 -1.15097e+01  6.47214e+01             
       O -7.69732e+01 -2.63571e+01  5.37947e+01             
       H -7.62441e+01 -1.34237e+01  5.33627e+01             
       H -7.64171e+01 -2.69642e+01  5.43491e+01             
       O -7.82357e+01 -2.65989e+01  6.11441e+01             
       H -7.75998e+01 -2.61986e+01  6.03855e+01             
       H -7.75838e+01 -2.68745e+01  6.18983e+01             
       O -6.25823e+01 -2.19322e+01  5.77190e+01             
       H -6.24771e+01 -2.18000e+01  5.86961e+01             
       H -6.16733e+01 -2.21096e+01  5.73824e+01             
       O -6.65736e+01 -2.13278e+01  7.09826e+01             
       H -6.58852e+01 -2.07414e+01  7.06699e+01             
       H -6.62296e+01 -2.21232e+01  7.14150e+01             
       O -7.83208e+01 -1.85501e+01  4.87383e+01             
       H -7.77106e+01 -1.92481e+01  4.90057e+01             
       H -6.90844e+01 -2.37942e-01  5.94821e+01             
       O -6.46763e+01 -2.12857e+01  7.72903e+01             
       H -6.41365e+01 -2.20567e+01  7.70641e+01             
       H -6.43111e+01 -3.32403e+01  7.80991e+01             
       O -8.55194e+01 -1.44571e+01  5.13238e+01             
       H -8.48762e+01 -1.40017e+01  5.07988e+01             
       H -8.50787e+01 -1.53137e+01  5.15900e+01             
       O -7.75590e+01 -3.02263e+01  5.33907e+01             
       H -7.69285e+01 -2.96168e+01  5.31349e+01             
       H -7.71358e+01 -3.09518e+01  5.38444e+01             
       O -7.98869e+01 -1.41239e+01  6.97819e+01             
       H -7.91623e+01 -1.36055e+01  6.92679e+01             
       H -7.94749e+01 -1.47910e+01  7.04717e+01             
       O -7.83199e+01 -1.27600e+01  5.58977e+01             
       H -7.79275e+01 -1.32340e+01  5.51039e+01             
       H -6.64652e+01 -1.78889e+01  5.18471e+01             
       O -7.01918e+01 -3.71888e+01  5.37176e+01             
       H -6.95168e+01 -3.65797e+01  5.40151e+01             
       H -7.26084e+01 -2.91840e+01  6.12193e+01             
       O -8.54222e+01 -1.86225e+01  5.75167e+01             
       H -8.46320e+01 -1.80810e+01  5.72722e+01             
       H -8.49711e+01 -1.93687e+01  5.79279e+01             
       O -6.49721e+01 -2.47844e+01  6.36995e+01             
       H -6.41539e+01 -2.43075e+01  6.38748e+01             
       H -6.45722e+01 -2.56269e+01  6.34375e+01             
       O -7.52237e+01 -1.54094e+01  6.76683e+01             
       H -7.46795e+01 -1.47362e+01  6.80751e+01             
       H -7.47976e+01 -1.58146e+01  6.68209e+01             
       O -8.11681e+01 -1.32044e+01  5.15160e+01             
       H -8.05709e+01 -2.48797e+01  5.11315e+01             
       H -8.05048e+01 -1.38825e+01  5.18047e+01             
       O -7.91841e+01 -2.83992e+01  4.70522e+01             
       H -7.88420e+01 -2.78077e+01  4.77644e+01             
       H -7.83795e+01 -2.87995e+01  4.68243e+01             
       O -8.90078e+01 -1.34420e+01  5.92574e+01             
       H -8.81215e+01 -1.37965e+01  5.95457e+01             
       H -8.87814e+01 -1.30219e+01  5.83997e+01             
       O -8.15967e+01  3.16636e+00  4.95232e+01             
       H -5.72741e+01 -2.20885e+01  5.72741e+01             
       H -8.11021e+01  3.83595e+00  4.90680e+01             
       O -7.16596e+01 -1.64771e+01  6.51074e+01             
       H -7.39431e+01 -2.11766e+01  6.07707e+01             
       H -8.39941e+01 -1.57767e+01  6.58237e+01             
       O -7.26660e+01 -3.47298e+01  5.65834e+01             
       H -7.18541e+01 -3.50363e+01  5.69764e+01             
       H -7.27247e+01 -3.51235e+01  5.57212e+01             
       O -8.05814e+01 -1.96965e+01  6.01974e+01             
       H -7.97878e+01 -1.92419e+01  6.05104e+01             
       H -8.00648e+01 -2.02056e+01  5.95038e+01             
       O -7.12081e+01 -4.51043e+01  5.88759e+01             
       H -7.11497e+01 -4.59275e+01  5.83637e+01             
       H -7.02911e+01 -4.46620e+01  7.11941e+01             
       O -7.64950e+01 -7.64917e+00  5.46203e+01             
       H -7.67303e+01 -8.05991e+00  5.54619e+01             
       H -7.55228e+01 -7.53598e+00  5.48193e+01             
       O -7.12115e+01 -2.69636e+01  6.73047e+01             
       H -7.05187e+01 -2.75977e+01  6.76547e+01             
       H -7.07214e+01 -2.62853e+01  6.68026e+01             
       O -7.79325e+01 -2.32607e+01  7.27081e+01             
       H -7.72117e+01 -2.38976e+01  7.23341e+01             
       H -7.75000e+01 -2.26932e+01  7.33081e+01             
       O -9.28513e+01 -2.35687e+01  5.51304e+01             
       H -9.20941e+01 -2.42118e+01  5.53292e+01             
       H -9.28654e+01 -2.28930e+01  5.58115e+01             
       O -6.92618e+01 -4.85125e+00  7.19004e+01             
       H -6.83458e+01 -4.41793e+00  7.17435e+01             
       H -6.89634e+01 -5.70843e+00  7.22636e+01             
       O -7.60021e+01 -1.46503e+01  5.03931e+01             
       H -7.58678e+01 -1.56147e+01  5.05706e+01             
       H -7.51547e+01 -1.42428e+01  3.79875e+01             
       O -7.08624e+01 -1.61515e+01  3.64958e+01             
       H -7.02264e+01 -1.63933e+01  3.58118e+01             
       H -8.30468e+01 -1.52406e+01  3.69108e+01             
       O -6.45653e+01 -2.01348e+01  3.25647e+01             
       H -6.38100e+01 -2.07117e+01  3.27580e+01             
       H -6.42492e+01 -1.92236e+01  3.23147e+01             
       O -6.90711e+01 -2.82481e+01  4.36036e+01             
       H -6.86053e+01 -2.88022e+01  4.29207e+01             
       H -6.84151e+01 -2.77055e+01  5.65314e+01             
       O -7.10820e+01 -1.64381e+01  4.48903e+01             
       H -7.85088e+01 -1.45446e+01  5.26702e+01             
       H -7.07983e+01 -1.67996e+01  4.57626e+01             
       O -7.39284e+01 -2.66003e+01  6.00364e+01             
       H -7.37050e+01 -2.73465e+01  6.05933e+01             
       H -7.31863e+01 -2.65851e+01  5.93781e+01             
       O -6.31339e+01 -1.78013e+01  4.45160e+01             
       H -6.22634e+01 -1.82174e+01  4.47234e+01             
       H -6.30601e+01 -1.70437e+01  4.39416e+01             
       O -6.89794e+01 -3.22999e+01  5.40322e+01             
       H -6.82854e+01 -3.26549e+01  5.35110e+01             
       H -6.90049e+01 -3.13299e+01  5.39677e+01             
       O -7.38430e+01 -7.26498e+00  6.71432e+01             
       H -7.30374e+01 -7.72169e+00  6.67668e+01             
       H -7.33812e+01 -6.87838e+00  6.79150e+01             
       O -6.70770e+01  3.03635e+00  7.79323e+01             
       H -6.71083e+01  2.37748e+00  7.87020e+01             
       H -6.61230e+01  3.32915e+00  7.78808e+01             
       O -7.34111e+01 -2.96589e+01  6.12671e+01             
       H -7.76752e+01 -1.79528e+01  4.83709e+01             
       H -7.31745e+01 -3.06395e+01  6.12477e+01             
       O -7.61169e+01 -1.71140e+01  5.97147e+01             
       H -7.01737e+01 -1.63917e+01  4.44017e+01             
       H -7.52823e+01 -1.71140e+01  6.01729e+01             
       O -6.69383e+01 -1.76299e+01  5.10470e+01             
       H -8.09911e+01 -9.92884e+00  4.98779e+01             
       H -6.64814e+01 -1.79036e+01  5.02076e+01             
       O -6.83695e+01 -3.37610e+01  5.65563e+01             
       H -7.99284e+01 -3.36245e+01  6.95146e+01             
       H -6.23645e+01 -1.06978e+01  6.33813e+01             
       O -1.00194e+02 -1.70696e+01  6.32475e+01             
       H -9.94358e+01 -1.70294e+01  6.26085e+01             
       H -9.97686e+01 -1.72515e+01  6.41369e+01             
       O -7.04146e+01 -3.51134e+01  5.76149e+01             
       H -7.00393e+01 -3.59888e+01  5.79032e+01             
       H -7.07417e+01 -1.67032e+01  6.47551e+01             
       O -7.93170e+01 -1.50043e+01  5.22812e+01             
       H -7.90156e+01 -1.55237e+01  5.15197e+01             
       H -8.52668e+01 -2.38750e+01  3.65465e+01             
       O -8.48736e+01 -2.34357e+01  5.40638e+01             
       H -8.40490e+01 -2.39258e+01  5.38495e+01             
       H -8.46735e+01 -2.25436e+01  5.36991e+01             
       O -6.81288e+01 -2.49192e+01  4.85216e+01             
       H -6.78020e+01 -2.39944e+01  4.86866e+01             
       H -6.73385e+01 -2.54737e+01  4.83747e+01             
       O -5.52699e+01 -2.95351e+01  5.40504e+01             
       H -5.44139e+01 -1.74394e+01  5.42620e+01             
       H -5.50132e+01 -2.88030e+01  5.34674e+01             
       O -7.10454e+01 -1.09813e+01  6.09073e+01             
       H -5.79934e+01 -1.03944e+01  6.13840e+01             
       H -7.06901e+01 -1.11908e+01  6.00283e+01             
       O -6.95195e+01 -3.12840e-01  5.85705e+01             
       H -6.96662e+01 -3.74615e+01  5.28370e+01             
       H -7.74767e+01 -1.10920e-01  5.64372e+01             
       O -8.39246e+01 -2.06898e+01  5.34726e+01             
       H -8.30210e+01 -2.04116e+01  5.36217e+01             
       H -8.40179e+01 -2.05567e+01  5.25488e+01             
       O -7.96906e+01 -1.09697e+01  3.82510e+01             
       H -7.88043e+01 -2.38822e+01  3.82632e+01             
       H -7.96050e+01 -1.03423e+01  3.90131e+01             
       O -8.51318e+01 -1.98439e+01  6.11199e+01             
       H -8.46125e+01 -1.98131e+01  6.19506e+01             
       H -8.44765e+01 -1.99089e+01  6.03659e+01             
       O -7.64990e+01 -2.06456e+01  6.20262e+01             
       H -7.63940e+01 -2.05459e+01  6.29596e+01             
       H -7.56195e+01 -2.09069e+01  6.16092e+01             
       O -8.71548e+01 -2.16526e+01  4.80715e+01             
       H -8.69470e+01 -2.26200e+01  6.07677e+01             
       H -8.08408e+01 -4.56962e+01  4.32864e+01             
       O -6.36837e+01 -2.43772e+01  6.92578e+01             
       H -6.34827e+01 -2.34599e+01  6.95637e+01             
       H -6.28253e+01 -2.47769e+01  6.90797e+01             
       O -7.36216e+01 -2.57061e+01  5.63483e+01             
       H -7.30466e+01 -2.59395e+01  5.70514e+01             
       H -7.30100e+01 -2.54295e+01  5.56488e+01             
       O -9.55879e+01 -2.60142e+01  6.24305e+01             
       H -9.48080e+01 -2.59298e+01  6.29838e+01             
       H -9.54723e+01 -2.53037e+01  6.17587e+01             
       O -7.19064e+01 -2.64905e+01  5.83049e+01             
       H -7.10777e+01 -2.59922e+01  5.84988e+01             
       H -7.16740e+01 -2.73259e+01  5.78073e+01             
       O -8.66060e+01 -1.72280e+01  2.83919e+01             
       H -8.56373e+01 -1.70463e+01  2.82374e+01             
       H -8.66086e+01 -1.80424e+01  2.89481e+01             
       O -7.37797e+01 -2.39272e+01  3.67899e+01             
       H -5.63119e+01 -1.32077e+01  4.56837e+01             
       H -7.39004e+01 -2.48752e+01  3.65554e+01             
       O -8.20946e+01 -1.76401e+01  6.33262e+01             
       H -8.24474e+01 -1.72179e+01  6.25598e+01             
       H -8.11738e+01 -1.78218e+01  6.33785e+01             
       O -8.34128e+01 -1.99485e+01  7.57096e+01             
       H -8.29429e+01 -1.90885e+01  7.58100e+01             
       H -8.27490e+01 -2.05854e+01  7.53244e+01             
