192                                                         
# CELL(abcABC):   12.41850    12.41850    12.41850    90.00000    90.00000    90.00000  Step:           0  Bead:       0 x_centroid{angstrom}  cell{angstrom}   
       O -7.32644e+01 -8.35439e+00  6.25076e+01             
       H -7.29027e+01 -8.97238e+00  6.18239e+01             
       H -7.25145e+01 -8.03676e+00  6.29937e+01             
       O -6.49905e+01 -5.99591e+00  6.22217e+01             
       H -6.15881e+01 -1.65913e+01  5.54232e+01             
       H -6.44465e+01 -5.42885e+00  6.28058e+01             
       O -6.73698e+01 -2.80475e+01  4.63750e+01             
       H -6.65347e+01 -1.61695e+01  4.64698e+01             
       H -6.70633e+01 -2.71322e+01  4.61812e+01             
       O -6.46922e+01 -2.28731e+01  5.15613e+01             
       H -6.38733e+01 -2.22935e+01  5.16245e+01             
       H -6.42571e+01 -2.37089e+01  5.18473e+01             
       O -5.29528e+01 -2.18754e+01  5.44255e+01             
       H -5.23989e+01 -2.13667e+01  5.49768e+01             
       H -5.24180e+01 -2.22946e+01  5.37110e+01             
       O -5.55529e+01 -1.64034e+01  6.45801e+01             
       H -5.49059e+01 -1.59752e+01  6.39825e+01             
       H -5.50298e+01 -1.68861e+01  6.52055e+01             
       O -6.75458e+01 -2.01406e+01  4.25446e+01             
       H -6.72662e+01 -1.92670e+01  4.23024e+01             
       H -5.48725e+01  7.51097e-01  5.23268e+01             
       O -5.23612e+01 -1.54416e+01  6.83483e+01             
       H -5.21919e+01 -1.46273e+01  6.78373e+01             
       H -5.14599e+01 -2.82352e+01  6.82904e+01             
       O -7.47612e+01 -9.62297e+00  4.48088e+01             
       H -7.38626e+01 -9.42701e+00  4.50480e+01             
       H -7.48730e+01 -1.02466e+01  4.41059e+01             
       O -6.59989e+01 -2.74818e+01  5.12804e+01             
       H -6.52056e+01 -2.79415e+01  5.10084e+01             
       H -6.58949e+01 -2.65958e+01  5.09469e+01             
       O -7.18725e+01 -6.82372e+00  5.93309e+01             
       H -7.16346e+01 -6.03069e+00  5.89134e+01             
       H -7.17355e+01 -6.64435e+00  6.02858e+01             
       O -6.84132e+01 -1.21217e+01  4.84405e+01             
       H -6.81836e+01 -1.15417e+01  4.76622e+01             
       H -5.48410e+01 -1.56307e+01  4.36976e+01             
       O -6.20274e+01 -3.10451e+01  4.52609e+01             
       H -6.21560e+01 -3.01469e+01  4.49218e+01             
       H -6.06226e+01 -2.63661e+01  5.77601e+01             
       O -7.43147e+01 -1.42009e+01  5.09875e+01             
       H -7.34234e+01 -1.38818e+01  5.11056e+01             
       H -7.45290e+01 -1.39958e+01  5.00146e+01             
       O -5.37541e+01 -2.56729e+01  5.82932e+01             
       H -5.29907e+01 -2.56192e+01  5.89019e+01             
       H -5.33951e+01 -2.53749e+01  5.74275e+01             
       O -6.58979e+01 -1.26083e+01  6.21405e+01             
       H -6.57544e+01 -1.18799e+01  6.27803e+01             
       H -6.52025e+01 -1.25103e+01  6.14502e+01             
       O -6.76955e+01 -1.06745e+01  4.59061e+01             
       H -6.70684e+01 -2.38108e+01  4.56467e+01             
       H -6.72352e+01 -9.85462e+00  4.57900e+01             
       O -6.67744e+01 -2.59562e+01  4.08602e+01             
       H -6.60647e+01 -2.55704e+01  4.14112e+01             
       H -6.61866e+01 -2.64446e+01  4.02701e+01             
       O -7.49672e+01 -8.84262e+00  5.22266e+01             
       H -7.42981e+01 -9.38877e+00  5.27168e+01             
       H -7.44648e+01 -8.64789e+00  5.14203e+01             
       O -6.93183e+01  4.81493e+00  4.47108e+01             
       H -4.56483e+01 -1.59041e+01  4.85768e+01             
       H -6.85828e+01  4.71739e+00  4.40892e+01             
       O -5.97073e+01 -1.47506e+01  5.91063e+01             
       H -6.36704e+01 -2.05474e+01  5.67362e+01             
       H -7.18819e+01 -1.56436e+01  5.89911e+01             
       O -6.35760e+01 -3.13421e+01  5.35345e+01             
       H -6.27614e+01 -3.09338e+01  5.38963e+01             
       H -6.33047e+01 -3.20025e+01  5.29093e+01             
       O -7.17210e+01 -1.97887e+01  5.58707e+01             
       H -7.17025e+01 -2.07892e+01  5.56986e+01             
       H -7.09276e+01 -1.96655e+01  5.64673e+01             
       O -6.10389e+01 -4.20343e+01  4.95663e+01             
       H -6.01308e+01 -4.18201e+01  4.93851e+01             
       H -6.11593e+01 -4.25152e+01  6.27962e+01             
       O -6.29985e+01 -3.28789e+00  4.79655e+01             
       H -6.22753e+01 -3.63860e+00  4.85086e+01             
       H -6.31063e+01 -2.36739e+00  4.82679e+01             
       O -6.02480e+01 -2.30753e+01  6.09746e+01             
       H -5.94390e+01 -2.33454e+01  6.14607e+01             
       H -6.00008e+01 -2.27238e+01  6.00933e+01             
       O -6.53287e+01 -2.47178e+01  6.83570e+01             
       H -6.55138e+01 -2.38195e+01  6.80337e+01             
       H -6.43273e+01 -2.48396e+01  6.82437e+01             
       O -8.08401e+01 -1.77199e+01  4.97117e+01             
       H -7.99615e+01 -1.79746e+01  4.93468e+01             
       H -8.06232e+01 -1.75383e+01  5.06627e+01             
       O -5.72758e+01 -9.28742e-01  6.58865e+01             
       H -5.63932e+01 -7.41354e-01  6.62226e+01             
       H -5.70574e+01 -1.04789e+00  6.49461e+01             
       O -6.26947e+01 -1.23140e+01  4.31712e+01             
       H -6.20498e+01 -1.28506e+01  4.37656e+01             
       H -6.21475e+01 -1.20098e+01  3.00167e+01             
       O -5.98027e+01 -1.77398e+01  2.72690e+01             
       H -5.93757e+01 -1.85362e+01  2.69253e+01             
       H -7.15535e+01 -1.69959e+01  2.72401e+01             
       O -5.12393e+01 -1.67235e+01  2.67367e+01             
       H -5.04083e+01 -1.63264e+01  2.65323e+01             
       H -5.12295e+01 -1.69035e+01  2.76806e+01             
       O -5.80070e+01 -2.36051e+01  3.76413e+01             
       H -5.72959e+01 -2.39214e+01  3.70303e+01             
       H -5.77503e+01 -2.27249e+01  5.02477e+01             
       O -5.99749e+01 -1.23718e+01  3.91653e+01             
       H -6.36070e+01 -8.54533e+00  4.75522e+01             
       H -5.93788e+01 -1.28625e+01  3.98017e+01             
       O -6.12743e+01 -2.36035e+01  5.37094e+01             
       H -6.09125e+01 -2.40144e+01  5.28501e+01             
       H -6.05228e+01 -2.32180e+01  5.41538e+01             
       O -5.11865e+01 -1.26811e+01  4.00254e+01             
       H -5.05863e+01 -1.25257e+01  4.07690e+01             
       H -5.05673e+01 -1.32175e+01  3.94453e+01             
       O -5.54588e+01 -3.14529e+01  4.69702e+01             
       H -5.48572e+01 -3.07333e+01  4.67711e+01             
       H -5.48276e+01 -3.22228e+01  4.68148e+01             
       O -6.14883e+01 -6.42100e-01  6.07592e+01             
       H -6.07547e+01 -1.23236e+00  6.04224e+01             
       H -6.10952e+01  2.14247e-01  6.09730e+01             
       O -5.79958e+01  7.75560e+00  6.74020e+01             
       H -5.81087e+01  6.89859e+00  6.70271e+01             
       H -5.71777e+01  8.13414e+00  6.70526e+01             
       O -6.08592e+01 -2.61052e+01  5.68549e+01             
       H -6.67421e+01 -2.06746e+01  4.24281e+01             
       H -6.00767e+01 -2.61421e+01  5.62479e+01             
       O -6.21065e+01 -1.61237e+01  5.61394e+01             
       H -5.92220e+01 -1.19601e+01  3.86654e+01             
       H -6.16444e+01 -1.52995e+01  5.63341e+01             
       O -5.55736e+01 -1.55739e+01  4.30683e+01             
       H -6.88692e+01 -7.15615e+00  4.54153e+01             
       H -5.52922e+01 -1.49680e+01  4.23779e+01             
       O -5.80580e+01 -2.79037e+01  5.17359e+01             
       H -6.95639e+01 -2.82333e+01  6.43949e+01             
       H -5.21135e+01 -6.04893e+00  6.13656e+01             
       O -9.01258e+01 -1.74134e+01  5.91185e+01             
       H -8.96519e+01 -1.79207e+01  5.85450e+01             
       H -8.94367e+01 -1.71170e+01  5.96933e+01             
       O -5.84305e+01 -2.90877e+01  4.90068e+01             
       H -5.76355e+01 -2.97029e+01  4.89401e+01             
       H -5.88740e+01 -1.42432e+01  5.90249e+01             
       O -6.38516e+01 -9.37825e+00  4.70798e+01             
       H -6.32683e+01 -9.27283e+00  4.62503e+01             
       H -7.77629e+01 -1.80828e+01  2.88273e+01             
       O -7.50608e+01 -1.95387e+01  4.79244e+01             
       H -7.46522e+01 -1.92191e+01  4.71555e+01             
       H -7.43818e+01 -1.96219e+01  4.86066e+01             
       O -5.78842e+01 -2.34236e+01  4.47923e+01             
       H -5.71388e+01 -2.29522e+01  4.51249e+01             
       H -5.76637e+01 -2.44111e+01  4.49245e+01             
       O -4.45467e+01 -2.71168e+01  4.78500e+01             
       H -4.41028e+01 -1.38770e+01  4.80960e+01             
       H -4.37614e+01 -2.77368e+01  4.76361e+01             
       O -5.90555e+01 -9.90425e+00  5.49957e+01             
       H -4.61892e+01 -1.04416e+01  5.56600e+01             
       H -5.83741e+01 -9.69366e+00  5.43760e+01             
       O -5.51028e+01  1.64857e+00  5.20532e+01             
       H -6.12040e+01 -3.14073e+01  4.49224e+01             
       H -6.75956e+01  1.61895e-01  4.90015e+01             
       O -7.05206e+01 -1.69423e+01  4.57966e+01             
       H -6.96217e+01 -1.66911e+01  4.60121e+01             
       H -7.05497e+01 -1.70633e+01  4.48417e+01             
       O -6.89889e+01 -8.63325e+00  3.70976e+01             
       H -6.81259e+01 -2.06958e+01  3.74209e+01             
       H -6.89386e+01 -8.37867e+00  3.61528e+01             
       O -7.35863e+01 -1.81546e+01  5.45148e+01             
       H -7.30215e+01 -1.86590e+01  5.51364e+01             
       H -7.29183e+01 -1.79891e+01  5.38119e+01             
       O -6.60173e+01 -2.07497e+01  5.83669e+01             
       H -6.56019e+01 -2.03447e+01  5.75718e+01             
       H -6.53488e+01 -2.12517e+01  5.88395e+01             
       O -7.66524e+01 -2.01879e+01  4.36324e+01             
       H -7.61813e+01 -1.95503e+01  5.54860e+01             
       H -7.06590e+01 -4.06099e+01  3.84270e+01             
       O -5.38218e+01 -2.06793e+01  6.28920e+01             
       H -5.33627e+01 -1.98013e+01  6.27727e+01             
       H -5.32487e+01 -2.14612e+01  6.27291e+01             
       O -5.84762e+01 -2.01582e+01  5.12630e+01             
       H -5.79930e+01 -2.05116e+01  5.20402e+01             
       H -5.77885e+01 -2.00964e+01  5.05410e+01             
       O -8.46429e+01 -2.19209e+01  5.83281e+01             
       H -8.44066e+01 -2.09766e+01  5.84111e+01             
       H -8.38620e+01 -2.24081e+01  5.79122e+01             
       O -5.69075e+01 -2.16374e+01  5.30141e+01             
       H -5.64534e+01 -2.09161e+01  5.34737e+01             
       H -5.62107e+01 -2.22541e+01  5.27194e+01             
       O -7.64461e+01 -1.22521e+01  2.28452e+01             
       H -7.63986e+01 -1.13182e+01  2.26515e+01             
       H -7.55434e+01 -1.26417e+01  2.28368e+01             
       O -6.62001e+01 -1.77909e+01  2.92733e+01             
       H -4.18811e+01 -1.02704e+01  3.98020e+01             
       H -6.58642e+01 -1.71841e+01  2.99822e+01             
       O -6.98179e+01 -1.36415e+01  5.74398e+01             
       H -6.91611e+01 -1.38508e+01  5.81496e+01             
       H -6.98092e+01 -1.43307e+01  5.67229e+01             
       O -7.15341e+01 -1.45566e+01  6.74639e+01             
       H -7.07973e+01 -1.43217e+01  6.69036e+01             
       H -7.13766e+01 -1.55348e+01  6.74556e+01             
192                                                         
# CELL(abcABC):   12.41850    12.41850    12.41850    90.00000    90.00000    90.00000  Step:      200000  Bead:       0 x_centroid{angstrom}  cell{angstrom}   
       O -8.57281e+01 -1.23783e+01  7.00607e+01             
       H -8.49699e+01 -1.29490e+01  6.98028e+01             
       H -8.53140e+01 -1.16784e+01  7.06003e+01             
       O -7.53971e+01 -1.07423e+01  6.63737e+01             
       H -7.45499e+01 -1.90191e+01  6.59293e+01             
       H -7.49950e+01 -9.93723e+00  6.67198e+01             
       O -8.10102e+01 -3.20184e+01  5.38246e+01             
       H -8.07717e+01 -1.90362e+01  5.29893e+01             
       H -8.05116e+01 -3.17865e+01  5.46082e+01             
       O -7.75765e+01 -2.56119e+01  5.64298e+01             
       H -7.69948e+01 -2.60737e+01  5.57909e+01             
       H -7.69104e+01 -2.55903e+01  5.72457e+01             
       O -6.57220e+01 -2.30214e+01  6.08212e+01             
       H -6.51024e+01 -2.30763e+01  6.15562e+01             
       H -6.50950e+01 -2.32206e+01  6.00281e+01             
       O -6.75002e+01 -2.25632e+01  6.95082e+01             
       H -6.71141e+01 -2.23209e+01  7.03912e+01             
       H -6.67872e+01 -2.25373e+01  6.88149e+01             
       O -8.25855e+01 -2.13512e+01  4.78234e+01             
       H -8.22669e+01 -2.07188e+01  4.70974e+01             
       H -6.53071e+01 -9.86996e-01  6.21166e+01             
       O -6.49163e+01 -1.89672e+01  7.34426e+01             
       H -6.45877e+01 -1.80332e+01  7.35417e+01             
       H -6.41148e+01 -3.19665e+01  7.33932e+01             
       O -8.90842e+01 -1.46669e+01  5.13559e+01             
       H -8.88508e+01 -1.50953e+01  5.05042e+01             
       H -8.83658e+01 -1.45841e+01  5.19599e+01             
       O -7.53388e+01 -3.34939e+01  5.79086e+01             
       H -7.45440e+01 -3.38817e+01  5.74549e+01             
       H -7.52272e+01 -3.34384e+01  5.88943e+01             
       O -8.04137e+01 -9.74313e+00  6.20149e+01             
       H -7.97211e+01 -9.02272e+00  6.22108e+01             
       H -7.97864e+01 -1.03079e+01  6.14897e+01             
       O -8.19613e+01 -1.55706e+01  5.52156e+01             
       H -8.17417e+01 -1.49711e+01  5.44282e+01             
       H -6.90974e+01 -1.83273e+01  4.86935e+01             
       O -7.31348e+01 -3.74356e+01  5.36546e+01             
       H -7.25808e+01 -3.70355e+01  5.43492e+01             
       H -7.34193e+01 -2.99234e+01  6.30905e+01             
       O -8.61278e+01 -1.82937e+01  5.94666e+01             
       H -8.55501e+01 -1.77094e+01  6.00070e+01             
       H -8.56171e+01 -1.89592e+01  5.89726e+01             
       O -6.64756e+01 -2.86771e+01  6.47665e+01             
       H -6.59591e+01 -2.91584e+01  6.55208e+01             
       H -6.57500e+01 -2.81565e+01  6.43441e+01             
       O -7.58473e+01 -1.70837e+01  7.07744e+01             
       H -7.55360e+01 -1.65622e+01  7.00160e+01             
       H -7.49651e+01 -1.75632e+01  7.10351e+01             
       O -8.08414e+01 -1.43618e+01  5.27995e+01             
       H -8.00006e+01 -2.72674e+01  5.26634e+01             
       H -8.06858e+01 -1.33904e+01  5.28237e+01             
       O -7.99591e+01 -2.67508e+01  4.46263e+01             
       H -7.96393e+01 -2.73638e+01  4.53951e+01             
       H -7.91397e+01 -2.62534e+01  4.44152e+01             
       O -8.81259e+01 -1.35622e+01  5.85298e+01             
       H -8.81527e+01 -1.42232e+01  5.92636e+01             
       H -8.72152e+01 -1.32691e+01  5.84132e+01             
       O -7.89436e+01  4.80424e+00  5.03971e+01             
       H -5.84504e+01 -1.47255e+01  5.76153e+01             
       H -7.82475e+01  5.29660e+00  4.97802e+01             
       O -7.20204e+01 -1.66677e+01  6.41619e+01             
       H -7.74236e+01 -2.46772e+01  6.43261e+01             
       H -8.41379e+01 -1.71483e+01  6.49469e+01             
       O -7.71486e+01 -3.56414e+01  5.81973e+01             
       H -7.67533e+01 -3.47964e+01  5.79405e+01             
       H -7.64400e+01 -3.62520e+01  5.80475e+01             
       O -8.75185e+01 -2.28913e+01  6.29100e+01             
       H -8.70130e+01 -2.34622e+01  6.22998e+01             
       H -8.68613e+01 -2.26442e+01  6.35800e+01             
       O -7.20365e+01 -4.45259e+01  5.76936e+01             
       H -7.10946e+01 -4.47760e+01  5.77672e+01             
       H -7.23566e+01 -4.50517e+01  6.94304e+01             
       O -7.73866e+01 -4.72204e+00  5.43137e+01             
       H -7.65691e+01 -5.31660e+00  5.40809e+01             
       H -7.70690e+01 -3.88358e+00  5.47241e+01             
       O -6.94150e+01 -2.45632e+01  6.98927e+01             
       H -6.89433e+01 -2.54152e+01  6.97012e+01             
       H -6.86306e+01 -2.39879e+01  6.98402e+01             
       O -8.00321e+01 -3.07250e+01  7.25215e+01             
       H -7.94511e+01 -2.99609e+01  7.26620e+01             
       H -7.95720e+01 -3.15536e+01  7.22603e+01             
       O -9.49689e+01 -2.28854e+01  5.14294e+01             
       H -9.43938e+01 -2.25857e+01  5.21004e+01             
       H -9.44868e+01 -2.25707e+01  5.06729e+01             
       O -7.00106e+01 -3.32249e+00  7.15375e+01             
       H -6.95065e+01 -3.97718e+00  7.09210e+01             
       H -6.95036e+01 -3.01600e+00  7.22898e+01             
       O -7.59036e+01 -1.65563e+01  4.94447e+01             
       H -7.54195e+01 -1.72709e+01  4.98346e+01             
       H -7.52434e+01 -1.59995e+01  3.64878e+01             
       O -7.50874e+01 -2.07841e+01  3.58253e+01             
       H -7.42699e+01 -2.03136e+01  3.58416e+01             
       H -8.74374e+01 -2.15224e+01  3.64464e+01             
       O -6.06217e+01 -2.17314e+01  3.12315e+01             
       H -6.05750e+01 -2.13111e+01  3.03592e+01             
       H -6.00113e+01 -2.24868e+01  3.11085e+01             
       O -6.58668e+01 -2.85486e+01  4.75750e+01             
       H -6.58330e+01 -2.77228e+01  4.79909e+01             
       H -6.49792e+01 -2.87409e+01  5.96603e+01             
       O -7.19763e+01 -1.66689e+01  4.83648e+01             
       H -7.53123e+01 -1.52619e+01  5.58184e+01             
       H -7.12106e+01 -1.64397e+01  4.78346e+01             
       O -7.44054e+01 -2.71630e+01  6.05862e+01             
       H -7.37454e+01 -2.78959e+01  6.05884e+01             
       H -7.39787e+01 -2.64235e+01  6.09858e+01             
       O -6.10689e+01 -1.65517e+01  4.41542e+01             
       H -6.04022e+01 -1.58006e+01  4.43133e+01             
       H -6.05802e+01 -1.73021e+01  4.45040e+01             
       O -6.51321e+01 -3.26409e+01  5.29804e+01             
       H -6.56416e+01 -3.22811e+01  5.37556e+01             
       H -6.43043e+01 -3.21002e+01  5.28682e+01             
       O -7.41704e+01 -2.77834e+00  6.52360e+01             
       H -7.34400e+01 -3.36502e+00  6.49577e+01             
       H -7.36872e+01 -1.96699e+00  6.55861e+01             
       O -7.26993e+01  3.10752e+00  7.62757e+01             
       H -7.18441e+01  2.71628e+00  7.65040e+01             
       H -7.24328e+01  3.81162e+00  7.56230e+01             
       O -7.40165e+01 -3.06197e+01  6.29680e+01             
       H -8.17690e+01 -2.15949e+01  4.81965e+01             
       H -7.34147e+01 -3.14052e+01  6.28392e+01             
       O -7.53337e+01 -1.84745e+01  6.57643e+01             
       H -7.14623e+01 -1.71437e+01  4.90873e+01             
       H -7.52083e+01 -1.78589e+01  6.50408e+01             
       O -6.97788e+01 -1.82310e+01  4.93482e+01             
       H -7.84050e+01 -7.89670e+00  5.11515e+01             
       H -6.92208e+01 -1.81888e+01  5.02314e+01             
       O -6.95976e+01 -3.44655e+01  5.40113e+01             
       H -8.12959e+01 -3.51307e+01  6.63201e+01             
       H -6.23499e+01 -1.14801e+01  6.62415e+01             
       O -1.03981e+02 -1.87573e+01  6.80713e+01             
       H -1.03425e+02 -1.90436e+01  6.88176e+01             
       H -1.03351e+02 -1.81640e+01  6.76560e+01             
       O -7.15543e+01 -2.69375e+01  5.70064e+01             
       H -7.11849e+01 -2.69095e+01  5.61207e+01             
       H -7.11902e+01 -1.61701e+01  6.38742e+01             
       O -7.59674e+01 -1.50235e+01  5.50571e+01             
       H -7.52460e+01 -1.51974e+01  5.42829e+01             
       H -9.29278e+01 -1.77129e+01  3.37798e+01             
       O -8.37207e+01 -2.38464e+01  5.53175e+01             
       H -8.30533e+01 -2.32149e+01  5.48681e+01             
       H -8.31511e+01 -2.41198e+01  5.60308e+01             
       O -6.80378e+01 -3.05545e+01  5.15653e+01             
       H -6.74828e+01 -2.97620e+01  5.17270e+01             
       H -6.73517e+01 -3.12186e+01  5.12136e+01             
       O -5.86143e+01 -3.05203e+01  5.38634e+01             
       H -5.88042e+01 -1.75449e+01  5.46304e+01             
       H -5.77255e+01 -3.09283e+01  5.39002e+01             
       O -7.30842e+01 -1.22337e+01  6.12499e+01             
       H -6.01174e+01 -1.22605e+01  6.21287e+01             
       H -7.23987e+01 -1.18697e+01  6.05731e+01             
       O -6.57511e+01 -1.07649e+00  6.12468e+01             
       H -7.27228e+01 -3.71345e+01  5.28015e+01             
       H -8.11567e+01 -2.94757e+00  5.57267e+01             
       O -8.53656e+01 -2.01524e+01  5.37266e+01             
       H -8.45898e+01 -1.95771e+01  5.38141e+01             
       H -8.51795e+01 -2.07876e+01  5.29883e+01             
       O -7.73118e+01 -6.86541e+00  4.52133e+01             
       H -7.65592e+01 -1.98948e+01  4.49026e+01             
       H -7.67908e+01 -6.00320e+00  4.54179e+01             
       O -9.13772e+01 -2.05604e+01  5.92441e+01             
       H -9.09486e+01 -2.10069e+01  5.99849e+01             
       H -9.06744e+01 -2.01105e+01  5.87099e+01             
       O -8.01453e+01 -2.36623e+01  6.55707e+01             
       H -7.97327e+01 -2.33880e+01  6.47594e+01             
       H -7.93185e+01 -2.36169e+01  6.61833e+01             
       O -9.01814e+01 -2.40154e+01  5.12781e+01             
       H -8.94849e+01 -2.33102e+01  6.37110e+01             
       H -8.16456e+01 -4.59827e+01  4.15813e+01             
       O -6.56706e+01 -2.35220e+01  6.71793e+01             
       H -6.47652e+01 -2.32800e+01  6.69383e+01             
       H -6.55056e+01 -2.43041e+01  6.77761e+01             
       O -7.13714e+01 -2.37311e+01  5.91622e+01             
       H -7.08421e+01 -2.29352e+01  5.94418e+01             
       H -7.06519e+01 -2.42506e+01  5.86478e+01             
       O -9.65168e+01 -2.49676e+01  6.34692e+01             
       H -9.57993e+01 -2.43146e+01  6.37582e+01             
       H -9.60792e+01 -2.58330e+01  6.33835e+01             
       O -6.82351e+01 -2.75942e+01  6.10078e+01             
       H -6.74897e+01 -2.69641e+01  6.10922e+01             
       H -6.78693e+01 -2.84414e+01  6.12666e+01             
       O -9.40922e+01 -2.01762e+01  3.31242e+01             
       H -9.36967e+01 -1.92769e+01  3.30533e+01             
       H -9.36502e+01 -2.07889e+01  3.25355e+01             
       O -8.09519e+01 -1.75453e+01  3.28775e+01             
       H -5.36399e+01 -1.26438e+01  4.85753e+01             
       H -8.02284e+01 -1.74683e+01  3.22397e+01             
       O -8.26795e+01 -1.48868e+01  6.32988e+01             
       H -8.21869e+01 -1.49859e+01  6.24883e+01             
       H -8.20040e+01 -1.48719e+01  6.39975e+01             
       O -8.41621e+01 -2.00605e+01  7.43959e+01             
       H -8.38626e+01 -2.06661e+01  7.36888e+01             
       H -8.34463e+01 -1.93488e+01  7.44228e+01             
