192                                                         
# CELL(abcABC):   12.41850    12.41850    12.41850    90.00000    90.00000    90.00000  Step:           0  Bead:       0 x_centroid{angstrom}  cell{angstrom}   
       O -7.52490e+01 -9.03188e+00  6.36917e+01             
       H -7.48301e+01 -9.87329e+00  6.33169e+01             
       H -7.45253e+01 -8.56089e+00  6.41043e+01             
       O -6.67324e+01 -6.97710e+00  6.37395e+01             
       H -6.42084e+01 -1.80279e+01  5.66110e+01             
       H -6.64219e+01 -7.15686e+00  6.46438e+01             
       O -6.84699e+01 -2.77740e+01  4.68927e+01             
       H -6.76615e+01 -1.55792e+01  4.74069e+01             
       H -6.81286e+01 -2.71080e+01  4.62604e+01             
       O -6.61906e+01 -2.47843e+01  5.22425e+01             
       H -6.56206e+01 -2.40106e+01  5.22442e+01             
       H -6.56033e+01 -2.54733e+01  5.25339e+01             
       O -5.50842e+01 -2.21778e+01  5.56196e+01             
       H -5.42123e+01 -2.18131e+01  5.59561e+01             
       H -5.52063e+01 -2.16729e+01  5.48084e+01             
       O -5.61480e+01 -1.73073e+01  6.56045e+01             
       H -5.53738e+01 -1.71038e+01  6.49306e+01             
       H -5.58747e+01 -1.79562e+01  6.62520e+01             
       O -6.98641e+01 -2.09608e+01  4.40564e+01             
       H -6.91043e+01 -2.03510e+01  4.39574e+01             
       H -5.70768e+01  1.68278e+00  5.28903e+01             
       O -5.41290e+01 -1.63415e+01  6.90549e+01             
       H -5.36783e+01 -1.56774e+01  6.84925e+01             
       H -5.34643e+01 -2.90605e+01  6.96961e+01             
       O -7.65524e+01 -1.07268e+01  4.64629e+01             
       H -7.55716e+01 -1.07059e+01  4.65926e+01             
       H -7.66867e+01 -1.14948e+01  4.58401e+01             
       O -6.67723e+01 -2.88673e+01  5.14625e+01             
       H -6.58323e+01 -2.91310e+01  5.16910e+01             
       H -6.68092e+01 -2.78736e+01  5.15782e+01             
       O -7.31192e+01 -7.70868e+00  6.01150e+01             
       H -7.25371e+01 -7.57507e+00  6.08822e+01             
       H -7.26382e+01 -7.25239e+00  5.93454e+01             
       O -6.99634e+01 -1.00334e+01  4.92831e+01             
       H -6.95734e+01 -1.04698e+01  4.85879e+01             
       H -5.59187e+01 -1.58669e+01  4.35746e+01             
       O -6.31192e+01 -3.09972e+01  4.75973e+01             
       H -6.34454e+01 -3.08586e+01  4.66398e+01             
       H -6.21123e+01 -2.78274e+01  5.87882e+01             
       O -7.66130e+01 -1.41575e+01  5.26623e+01             
       H -7.56766e+01 -1.39441e+01  5.26096e+01             
       H -7.66487e+01 -1.49784e+01  5.22105e+01             
       O -5.48133e+01 -2.53717e+01  5.85427e+01             
       H -5.39347e+01 -2.53564e+01  5.88907e+01             
       H -5.47888e+01 -2.51490e+01  5.75686e+01             
       O -6.72657e+01 -1.34468e+01  6.25023e+01             
       H -6.70034e+01 -1.28057e+01  6.32065e+01             
       H -6.65619e+01 -1.34816e+01  6.18303e+01             
       O -6.90040e+01 -1.07555e+01  4.64961e+01             
       H -6.83425e+01 -2.38654e+01  4.66213e+01             
       H -6.86075e+01 -9.85281e+00  4.63525e+01             
       O -6.87250e+01 -2.49139e+01  4.07826e+01             
       H -6.86641e+01 -2.50012e+01  4.17168e+01             
       H -6.78033e+01 -2.46901e+01  4.04746e+01             
       O -7.70068e+01 -1.00921e+01  5.30278e+01             
       H -7.65231e+01 -1.06232e+01  5.36716e+01             
       H -7.63281e+01 -9.83809e+00  5.23340e+01             
       O -7.19793e+01  5.42437e+00  4.51744e+01             
       H -4.62020e+01 -1.53182e+01  4.96071e+01             
       H -7.11183e+01  4.90695e+00  4.50699e+01             
       O -5.99447e+01 -1.24560e+01  6.01257e+01             
       H -6.46850e+01 -2.17224e+01  5.76998e+01             
       H -7.17063e+01 -1.28151e+01  6.07251e+01             
       O -6.60030e+01 -3.25960e+01  5.38692e+01             
       H -6.51943e+01 -3.23048e+01  5.43083e+01             
       H -6.56469e+01 -3.34439e+01  5.36060e+01             
       O -7.46339e+01 -2.03813e+01  5.67508e+01             
       H -7.43611e+01 -2.11785e+01  5.63390e+01             
       H -7.38549e+01 -2.00011e+01  5.72213e+01             
       O -6.05266e+01 -4.10923e+01  4.73397e+01             
       H -6.01349e+01 -4.09502e+01  4.81853e+01             
       H -5.97415e+01 -4.10728e+01  5.91654e+01             
       O -6.35528e+01 -3.83327e+00  4.87744e+01             
       H -6.28541e+01 -3.19769e+00  4.88635e+01             
       H -6.32035e+01 -4.61549e+00  4.83260e+01             
       O -6.17381e+01 -2.35791e+01  6.25487e+01             
       H -6.08723e+01 -2.40443e+01  6.27171e+01             
       H -6.16922e+01 -2.32230e+01  6.16448e+01             
       O -6.76317e+01 -2.49099e+01  6.82059e+01             
       H -6.74796e+01 -2.39506e+01  6.80871e+01             
       H -6.68983e+01 -2.53361e+01  6.77490e+01             
       O -8.15586e+01 -1.85505e+01  4.99213e+01             
       H -8.13477e+01 -1.87482e+01  4.90136e+01             
       H -8.08391e+01 -1.87685e+01  5.04974e+01             
       O -5.83853e+01 -1.69707e+00  6.50347e+01             
       H -5.74336e+01 -1.43042e+00  6.49256e+01             
       H -5.85411e+01 -2.46791e+00  6.44915e+01             
       O -6.41858e+01 -1.29949e+01  4.47516e+01             
       H -6.38152e+01 -1.38540e+01  4.50961e+01             
       H -6.35048e+01 -1.25388e+01  3.17605e+01             
       O -6.23277e+01 -1.79961e+01  2.80236e+01             
       H -6.18415e+01 -1.86998e+01  2.75447e+01             
       H -7.40440e+01 -1.77217e+01  2.86828e+01             
       O -5.16510e+01 -1.65180e+01  2.65036e+01             
       H -5.15719e+01 -1.66249e+01  2.55402e+01             
       H -5.09675e+01 -1.70711e+01  2.69582e+01             
       O -5.92251e+01 -2.45499e+01  3.80656e+01             
       H -5.87247e+01 -2.37961e+01  3.78082e+01             
       H -5.87731e+01 -2.50574e+01  5.11551e+01             
       O -6.11417e+01 -1.37302e+01  4.11320e+01             
       H -6.52131e+01 -9.02480e+00  4.89155e+01             
       H -6.10362e+01 -1.44985e+01  4.16817e+01             
       O -6.25169e+01 -2.41407e+01  5.52618e+01             
       H -6.21882e+01 -2.47586e+01  5.45601e+01             
       H -6.16352e+01 -2.37077e+01  5.55597e+01             
       O -5.31419e+01 -1.40338e+01  4.25992e+01             
       H -5.25595e+01 -1.39073e+01  4.33959e+01             
       H -5.25410e+01 -1.42272e+01  4.18195e+01             
       O -5.58421e+01 -3.08426e+01  4.73877e+01             
       H -5.51953e+01 -3.01748e+01  4.76578e+01             
       H -5.54070e+01 -3.16313e+01  4.70266e+01             
       O -6.25233e+01 -1.23538e+00  6.13749e+01             
       H -6.16923e+01 -1.05346e+00  6.09918e+01             
       H -6.24680e+01 -5.10060e-01  6.20737e+01             
       O -6.01807e+01  7.06156e+00  6.68218e+01             
       H -5.99130e+01  6.18939e+00  6.70987e+01             
       H -5.95236e+01  7.43534e+00  6.62006e+01             
       O -6.25768e+01 -2.75830e+01  5.79748e+01             
       H -6.93370e+01 -2.17678e+01  4.38002e+01             
       H -6.18102e+01 -2.77179e+01  5.73410e+01             
       O -6.41695e+01 -1.75827e+01  5.75121e+01             
       H -6.02710e+01 -1.36351e+01  4.07077e+01             
       H -6.34939e+01 -1.68405e+01  5.73675e+01             
       O -5.68315e+01 -1.59708e+01  4.31929e+01             
       H -7.15705e+01 -6.12844e+00  4.53018e+01             
       H -5.65644e+01 -1.62422e+01  4.23011e+01             
       O -5.87163e+01 -2.92731e+01  5.23173e+01             
       H -7.02018e+01 -2.96396e+01  6.49578e+01             
       H -5.34859e+01 -6.91980e+00  6.32142e+01             
       O -9.11699e+01 -1.66484e+01  6.08672e+01             
       H -9.02718e+01 -1.62606e+01  6.08434e+01             
       H -9.13957e+01 -1.66622e+01  6.18066e+01             
       O -5.91551e+01 -2.85340e+01  4.97180e+01             
       H -5.85271e+01 -2.92219e+01  4.95431e+01             
       H -5.95331e+01 -1.24109e+01  5.92499e+01             
       O -6.56774e+01 -9.77283e+00  4.84407e+01             
       H -6.50125e+01 -1.01393e+01  4.78242e+01             
       H -7.93973e+01 -1.92208e+01  3.03062e+01             
       O -7.70243e+01 -1.99656e+01  4.98378e+01             
       H -7.65045e+01 -1.96206e+01  4.91142e+01             
       H -7.63654e+01 -2.05933e+01  5.02592e+01             
       O -5.90027e+01 -2.41174e+01  4.52239e+01             
       H -5.82725e+01 -2.35793e+01  4.54528e+01             
       H -5.86538e+01 -2.49284e+01  4.47854e+01             
       O -4.50086e+01 -2.66592e+01  4.89136e+01             
       H -4.43236e+01 -1.38095e+01  4.94505e+01             
       H -4.45641e+01 -2.69574e+01  4.80526e+01             
       O -6.04992e+01 -1.01495e+01  5.58640e+01             
       H -4.74553e+01 -1.06038e+01  5.64906e+01             
       H -5.99339e+01 -9.84408e+00  5.51416e+01             
       O -5.69400e+01  2.65081e+00  5.26845e+01             
       H -6.23430e+01 -3.15358e+01  4.74967e+01             
       H -6.92095e+01  2.37899e+00  4.99299e+01             
       O -7.06668e+01 -1.72853e+01  4.57069e+01             
       H -6.97945e+01 -1.72772e+01  4.61698e+01             
       H -7.05509e+01 -1.65595e+01  4.50293e+01             
       O -7.14610e+01 -7.88642e+00  3.77221e+01             
       H -7.11374e+01 -2.10745e+01  3.72178e+01             
       H -7.06346e+01 -7.45707e+00  3.79460e+01             
       O -7.62598e+01 -1.90318e+01  5.49135e+01             
       H -7.54964e+01 -1.94097e+01  5.53346e+01             
       H -7.58672e+01 -1.84981e+01  5.41226e+01             
       O -6.74200e+01 -2.07669e+01  5.88343e+01             
       H -6.68555e+01 -2.05674e+01  5.80418e+01             
       H -6.68159e+01 -2.10902e+01  5.95069e+01             
       O -7.76663e+01 -2.11335e+01  4.47150e+01             
       H -7.71628e+01 -2.03516e+01  5.69717e+01             
       H -7.15120e+01 -4.19192e+01  3.90862e+01             
       O -5.50323e+01 -2.22209e+01  6.29909e+01             
       H -5.48657e+01 -2.12397e+01  6.31383e+01             
       H -5.46049e+01 -2.24235e+01  6.21308e+01             
       O -6.07223e+01 -2.02023e+01  5.22886e+01             
       H -6.00139e+01 -2.05018e+01  5.29298e+01             
       H -6.01559e+01 -2.02006e+01  5.14575e+01             
       O -8.63751e+01 -2.28572e+01  5.98729e+01             
       H -8.59778e+01 -2.19623e+01  6.00044e+01             
       H -8.56310e+01 -2.35180e+01  5.98547e+01             
       O -5.88430e+01 -2.10604e+01  5.41991e+01             
       H -5.83042e+01 -2.09919e+01  5.50414e+01             
       H -5.81524e+01 -2.14262e+01  5.35987e+01             
       O -7.73896e+01 -1.30374e+01  2.33964e+01             
       H -7.72606e+01 -1.21629e+01  2.38301e+01             
       H -7.65620e+01 -1.35755e+01  2.34832e+01             
       O -6.76715e+01 -1.89588e+01  3.09704e+01             
       H -4.38355e+01 -9.66235e+00  3.96289e+01             
       H -6.73300e+01 -1.80791e+01  3.12528e+01             
       O -7.09693e+01 -1.40105e+01  5.57634e+01             
       H -7.10183e+01 -1.36517e+01  5.48731e+01             
       H -7.00919e+01 -1.44680e+01  5.57871e+01             
       O -7.32392e+01 -1.55795e+01  6.83815e+01             
       H -7.24102e+01 -1.49937e+01  6.82686e+01             
       H -7.30125e+01 -1.64229e+01  6.80165e+01             
192                                                         
# CELL(abcABC):   12.41850    12.41850    12.41850    90.00000    90.00000    90.00000  Step:      200000  Bead:       0 x_centroid{angstrom}  cell{angstrom}   
       O -8.74242e+01 -1.35192e+01  7.03826e+01             
       H -8.71427e+01 -1.44128e+01  7.00833e+01             
       H -8.65821e+01 -1.29659e+01  7.03080e+01             
       O -7.94435e+01 -1.27292e+01  6.81873e+01             
       H -7.62592e+01 -2.23531e+01  6.33373e+01             
       H -7.86067e+01 -1.25534e+01  6.86064e+01             
       O -8.06897e+01 -2.82312e+01  5.30561e+01             
       H -8.04094e+01 -1.54926e+01  5.21793e+01             
       H -7.99589e+01 -2.81548e+01  5.37038e+01             
       O -7.34914e+01 -3.39750e+01  5.83196e+01             
       H -7.27613e+01 -3.33459e+01  5.84915e+01             
       H -7.31507e+01 -3.47890e+01  5.79611e+01             
       O -6.68916e+01 -2.50034e+01  5.98881e+01             
       H -6.64798e+01 -2.42743e+01  5.94201e+01             
       H -6.62333e+01 -2.57068e+01  5.99116e+01             
       O -6.76847e+01 -1.73186e+01  7.24305e+01             
       H -6.70218e+01 -1.68080e+01  7.18434e+01             
       H -6.71306e+01 -1.77272e+01  7.31208e+01             
       O -8.19625e+01 -2.40711e+01  4.75518e+01             
       H -8.18942e+01 -2.31560e+01  4.78376e+01             
       H -6.98899e+01 -2.98628e+00  5.92339e+01             
       O -6.72632e+01 -2.13049e+01  7.48276e+01             
       H -6.64463e+01 -2.08862e+01  7.50010e+01             
       H -6.69625e+01 -3.46471e+01  7.50832e+01             
       O -8.87105e+01 -1.26256e+01  5.10488e+01             
       H -8.84640e+01 -1.27106e+01  5.19869e+01             
       H -8.79546e+01 -1.27627e+01  5.05112e+01             
       O -7.58933e+01 -3.51820e+01  5.51182e+01             
       H -7.54028e+01 -3.45295e+01  5.56823e+01             
       H -7.53280e+01 -3.57139e+01  5.45660e+01             
       O -8.34134e+01 -7.61124e+00  6.77369e+01             
       H -8.25796e+01 -8.10334e+00  6.79452e+01             
       H -8.31674e+01 -6.98986e+00  6.69858e+01             
       O -8.47870e+01 -1.59988e+01  5.55326e+01             
       H -8.40355e+01 -1.54460e+01  5.58627e+01             
       H -6.77286e+01 -1.85005e+01  5.09248e+01             
       O -7.78129e+01 -3.41115e+01  5.36997e+01             
       H -7.71102e+01 -3.45682e+01  5.41400e+01             
       H -7.44355e+01 -3.23776e+01  6.54126e+01             
       O -8.89721e+01 -1.94464e+01  5.99121e+01             
       H -8.81162e+01 -1.88917e+01  5.99127e+01             
       H -8.87086e+01 -2.03221e+01  6.02314e+01             
       O -6.61984e+01 -2.78284e+01  6.69577e+01             
       H -6.60700e+01 -2.67965e+01  6.71278e+01             
       H -6.55918e+01 -2.83086e+01  6.75903e+01             
       O -7.87817e+01 -1.60245e+01  7.07237e+01             
       H -7.84139e+01 -1.53179e+01  7.12348e+01             
       H -7.79978e+01 -1.62258e+01  7.00995e+01             
       O -8.27281e+01 -1.39599e+01  5.36480e+01             
       H -8.21045e+01 -2.71080e+01  5.34885e+01             
       H -8.22338e+01 -1.32388e+01  5.32342e+01             
       O -8.19460e+01 -2.82985e+01  4.88370e+01             
       H -8.14858e+01 -2.78375e+01  4.94797e+01             
       H -8.13191e+01 -2.90136e+01  4.84863e+01             
       O -8.95327e+01 -1.44216e+01  5.98929e+01             
       H -8.89770e+01 -1.50252e+01  6.05224e+01             
       H -8.87857e+01 -1.40443e+01  5.94417e+01             
       O -8.17937e+01  4.01947e+00  5.24116e+01             
       H -5.89953e+01 -1.93581e+01  5.69909e+01             
       H -8.10818e+01  3.39251e+00  5.26125e+01             
       O -7.50538e+01 -2.06898e+01  6.89760e+01             
       H -7.81409e+01 -2.49067e+01  6.29414e+01             
       H -8.69221e+01 -2.10902e+01  6.96967e+01             
       O -7.76687e+01 -3.51946e+01  5.87423e+01             
       H -7.73476e+01 -3.57356e+01  5.80277e+01             
       H -7.69549e+01 -3.47662e+01  5.92062e+01             
       O -8.35975e+01 -2.27188e+01  6.42708e+01             
       H -8.29474e+01 -2.34687e+01  6.43235e+01             
       H -8.29120e+01 -2.20505e+01  6.46014e+01             
       O -7.36361e+01 -4.53924e+01  5.43400e+01             
       H -7.35902e+01 -4.63496e+01  5.40078e+01             
       H -7.26457e+01 -4.51857e+01  6.71125e+01             
       O -7.62395e+01 -4.94309e+00  5.30414e+01             
       H -7.57037e+01 -5.64475e+00  5.25924e+01             
       H -7.57005e+01 -4.39754e+00  5.36872e+01             
       O -7.52406e+01 -2.51544e+01  6.58995e+01             
       H -7.50557e+01 -2.60769e+01  6.62706e+01             
       H -7.44457e+01 -2.46824e+01  6.59126e+01             
       O -8.00501e+01 -2.72447e+01  7.54986e+01             
       H -7.99283e+01 -2.63238e+01  7.52658e+01             
       H -7.92030e+01 -2.76545e+01  7.54951e+01             
       O -9.39818e+01 -2.17966e+01  5.58971e+01             
       H -9.31674e+01 -2.15472e+01  5.65078e+01             
       H -9.35632e+01 -2.23450e+01  5.51335e+01             
       O -7.25522e+01 -4.73047e+00  7.14908e+01             
       H -7.19084e+01 -3.94678e+00  7.14520e+01             
       H -7.20403e+01 -5.40700e+00  7.10168e+01             
       O -7.76505e+01 -1.65531e+01  5.10702e+01             
       H -7.73809e+01 -1.65626e+01  5.20405e+01             
       H -7.69252e+01 -1.62292e+01  3.80582e+01             
       O -7.55004e+01 -2.17096e+01  3.55167e+01             
       H -7.46799e+01 -2.14497e+01  3.51460e+01             
       H -8.75195e+01 -2.21793e+01  3.63162e+01             
       O -6.69610e+01 -2.11685e+01  3.24559e+01             
       H -6.63791e+01 -2.03444e+01  3.22737e+01             
       H -6.64175e+01 -2.17450e+01  3.30267e+01             
       O -7.43385e+01 -2.85485e+01  4.49039e+01             
       H -7.37953e+01 -2.84132e+01  4.40931e+01             
       H -7.37961e+01 -2.91741e+01  5.79344e+01             
       O -7.44487e+01 -1.78897e+01  4.83018e+01             
       H -7.90793e+01 -1.01758e+01  5.40517e+01             
       H -7.39093e+01 -1.83310e+01  4.90324e+01             
       O -7.57985e+01 -2.82773e+01  6.16116e+01             
       H -7.52332e+01 -2.91060e+01  6.12171e+01             
       H -7.51537e+01 -2.77142e+01  6.19226e+01             
       O -6.60654e+01 -1.84196e+01  4.96238e+01             
       H -6.56299e+01 -1.76876e+01  5.00311e+01             
       H -6.54313e+01 -1.87239e+01  4.89517e+01             
       O -6.83703e+01 -3.06526e+01  5.52823e+01             
       H -6.76129e+01 -3.09387e+01  5.47858e+01             
       H -6.79152e+01 -3.03621e+01  5.61025e+01             
       O -7.43491e+01 -3.17885e+00  6.62054e+01             
       H -7.37077e+01 -2.96137e+00  6.54942e+01             
       H -7.37406e+01 -3.62628e+00  6.68325e+01             
       O -7.18083e+01  3.67135e+00  7.44554e+01             
       H -7.13359e+01  3.24263e+00  7.51972e+01             
       H -7.12031e+01  3.79243e+00  7.37042e+01             
       O -7.48219e+01 -3.22266e+01  6.44678e+01             
       H -8.10236e+01 -2.43864e+01  4.75036e+01             
       H -7.39939e+01 -3.20938e+01  6.39972e+01             
       O -7.67225e+01 -2.15934e+01  6.37188e+01             
       H -7.37663e+01 -1.74706e+01  4.76851e+01             
       H -7.59841e+01 -2.09726e+01  6.39153e+01             
       O -6.84740e+01 -1.84477e+01  5.15082e+01             
       H -8.12489e+01 -7.64806e+00  5.20263e+01             
       H -6.82297e+01 -1.77790e+01  5.22175e+01             
       O -6.88622e+01 -3.19991e+01  5.87139e+01             
       H -8.07784e+01 -3.13882e+01  7.17437e+01             
       H -6.75024e+01 -1.34735e+01  6.86382e+01             
       O -1.03215e+02 -1.90755e+01  6.66115e+01             
       H -1.02503e+02 -1.83887e+01  6.64710e+01             
       H -1.02869e+02 -1.99651e+01  6.65189e+01             
       O -7.15318e+01 -3.17050e+01  5.79871e+01             
       H -7.06557e+01 -3.19812e+01  5.83425e+01             
       H -7.43833e+01 -2.04204e+01  6.82723e+01             
       O -7.99897e+01 -1.07330e+01  5.40834e+01             
       H -7.97038e+01 -1.15065e+01  5.47427e+01             
       H -9.39858e+01 -2.07878e+01  3.51034e+01             
       O -8.94322e+01 -2.44829e+01  5.68559e+01             
       H -8.89507e+01 -2.38350e+01  5.62295e+01             
       H -8.86735e+01 -2.50515e+01  5.71663e+01             
       O -7.22631e+01 -2.73648e+01  5.17555e+01             
       H -7.18649e+01 -2.82497e+01  5.15321e+01             
       H -7.17280e+01 -2.70012e+01  5.24611e+01             
       O -5.25245e+01 -3.18757e+01  5.72658e+01             
       H -5.23186e+01 -1.93564e+01  5.81928e+01             
       H -5.17752e+01 -3.24029e+01  5.68583e+01             
       O -7.36763e+01 -1.35484e+01  6.20565e+01             
       H -6.07035e+01 -1.39490e+01  6.27751e+01             
       H -7.30537e+01 -1.34772e+01  6.12172e+01             
       O -7.04036e+01 -2.76926e+00  5.84137e+01             
       H -7.74865e+01 -3.41616e+01  5.27101e+01             
       H -8.42970e+01 -4.28797e+00  5.49807e+01             
       O -8.30309e+01 -1.73708e+01  5.39857e+01             
       H -8.27191e+01 -1.70794e+01  5.31176e+01             
       H -8.21595e+01 -1.75911e+01  5.44861e+01             
       O -8.35704e+01 -1.14508e+01  4.31241e+01             
       H -8.30673e+01 -2.45831e+01  4.26880e+01             
       H -8.29834e+01 -1.07042e+01  4.33643e+01             
       O -8.65711e+01 -2.27780e+01  6.24134e+01             
       H -8.57353e+01 -2.22225e+01  6.21967e+01             
       H -8.62904e+01 -2.36570e+01  6.22401e+01             
       O -8.14980e+01 -2.41689e+01  6.47175e+01             
       H -8.10801e+01 -2.44428e+01  6.38765e+01             
       H -8.07673e+01 -2.36963e+01  6.52521e+01             
       O -9.14825e+01 -2.47061e+01  5.02804e+01             
       H -9.14618e+01 -2.46786e+01  6.17419e+01             
       H -8.06732e+01 -4.49376e+01  4.56977e+01             
       O -6.83427e+01 -2.75583e+01  6.91057e+01             
       H -6.77823e+01 -2.79826e+01  6.97405e+01             
       H -6.80151e+01 -2.79479e+01  6.82743e+01             
       O -7.28446e+01 -2.41523e+01  5.76788e+01             
       H -7.22619e+01 -2.45448e+01  5.82985e+01             
       H -7.23831e+01 -2.40909e+01  5.68107e+01             
       O -9.79926e+01 -2.31718e+01  6.60213e+01             
       H -9.73080e+01 -2.30497e+01  6.52821e+01             
       H -9.74830e+01 -2.31669e+01  6.69165e+01             
       O -7.19368e+01 -2.55348e+01  5.98316e+01             
       H -7.13244e+01 -2.48971e+01  6.02675e+01             
       H -7.13078e+01 -2.61671e+01  5.94360e+01             
       O -8.94930e+01 -1.66429e+01  3.17528e+01             
       H -8.97827e+01 -1.75790e+01  3.17563e+01             
       H -8.86052e+01 -1.65166e+01  3.20806e+01             
       O -8.18224e+01 -2.13159e+01  3.59132e+01             
       H -5.72773e+01 -1.51605e+01  4.52735e+01             
       H -8.10284e+01 -2.12156e+01  3.64991e+01             
       O -8.33539e+01 -1.73052e+01  6.31361e+01             
       H -8.29123e+01 -1.67355e+01  6.24984e+01             
       H -8.25921e+01 -1.77992e+01  6.34970e+01             
       O -8.54079e+01 -1.89741e+01  7.49903e+01             
       H -8.47623e+01 -1.82932e+01  7.52321e+01             
       H -8.48743e+01 -1.97934e+01  7.49636e+01             
