192                                                         
# CELL(abcABC):   12.41850    12.41850    12.41850    90.00000    90.00000    90.00000  Step:           0  Bead:       0 x_centroid{angstrom}  cell{angstrom}   
       O -7.20677e+01 -9.15287e+00  6.13646e+01             
       H -7.11620e+01 -9.32121e+00  6.09789e+01             
       H -7.18993e+01 -8.59808e+00  6.21244e+01             
       O -6.34036e+01 -6.13088e+00  6.14103e+01             
       H -6.06762e+01 -1.72241e+01  5.49980e+01             
       H -6.30607e+01 -5.95670e+00  6.05367e+01             
       O -6.68891e+01 -2.46869e+01  4.53035e+01             
       H -6.59850e+01 -1.24397e+01  4.56753e+01             
       H -6.71686e+01 -2.37877e+01  4.53966e+01             
       O -6.25296e+01 -2.41380e+01  5.14263e+01             
       H -6.18041e+01 -2.41098e+01  5.07860e+01             
       H -6.20068e+01 -2.40566e+01  5.22747e+01             
       O -5.03246e+01 -1.93654e+01  5.30155e+01             
       H -4.98096e+01 -1.97640e+01  5.37420e+01             
       H -4.97738e+01 -1.88038e+01  5.24787e+01             
       O -5.34098e+01 -1.75831e+01  6.34934e+01             
       H -5.26890e+01 -1.78755e+01  6.28883e+01             
       H -5.28997e+01 -1.74239e+01  6.43224e+01             
       O -6.72057e+01 -1.91160e+01  4.18465e+01             
       H -6.64904e+01 -1.88072e+01  4.12253e+01             
       H -5.25849e+01  2.08848e+00  5.21988e+01             
       O -5.14947e+01 -1.61800e+01  6.73926e+01             
       H -5.19735e+01 -1.53155e+01  6.74089e+01             
       H -5.05756e+01 -2.85266e+01  6.72103e+01             
       O -7.10832e+01 -1.00157e+01  4.32602e+01             
       H -7.04482e+01 -9.55834e+00  4.38442e+01             
       H -7.06220e+01 -1.06382e+01  4.26417e+01             
       O -6.52919e+01 -2.58146e+01  4.84942e+01             
       H -6.46245e+01 -2.64235e+01  4.83212e+01             
       H -6.49291e+01 -2.49665e+01  4.81649e+01             
       O -7.15590e+01 -7.23017e+00  5.90621e+01             
       H -7.09200e+01 -6.82888e+00  5.97278e+01             
       H -7.11792e+01 -7.09757e+00  5.81688e+01             
       O -6.69126e+01 -9.17614e+00  4.65834e+01             
       H -6.65503e+01 -8.23069e+00  4.65255e+01             
       H -5.19011e+01 -1.29101e+01  4.24498e+01             
       O -6.11383e+01 -3.02294e+01  4.71549e+01             
       H -6.04226e+01 -3.08523e+01  4.69268e+01             
       H -5.92773e+01 -2.65202e+01  5.63258e+01             
       O -7.15326e+01 -1.57696e+01  5.06765e+01             
       H -7.08512e+01 -1.51479e+01  5.03176e+01             
       H -7.10968e+01 -1.65885e+01  5.07621e+01             
       O -5.04374e+01 -2.46316e+01  5.59913e+01             
       H -5.07716e+01 -2.37200e+01  5.59612e+01             
       H -4.95165e+01 -2.45098e+01  5.55114e+01             
       O -6.44006e+01 -1.08406e+01  6.03035e+01             
       H -6.45564e+01 -9.93094e+00  6.03991e+01             
       H -6.35096e+01 -1.10079e+01  5.99983e+01             
       O -6.64003e+01 -9.48092e+00  4.26004e+01             
       H -6.55436e+01 -2.17338e+01  4.30697e+01             
       H -6.61615e+01 -1.01348e+01  4.18828e+01             
       O -6.45444e+01 -2.57792e+01  3.93319e+01             
       H -6.37304e+01 -2.52877e+01  3.92657e+01             
       H -6.44851e+01 -2.65617e+01  3.87675e+01             
       O -7.26615e+01 -1.18106e+01  4.96024e+01             
       H -7.22105e+01 -1.10238e+01  4.92192e+01             
       H -7.19094e+01 -1.23405e+01  4.99045e+01             
       O -6.77478e+01  6.13224e+00  4.46275e+01             
       H -4.46385e+01 -1.77180e+01  4.84517e+01             
       H -6.71336e+01  6.06345e+00  4.38728e+01             
       O -5.88043e+01 -1.37809e+01  5.87023e+01             
       H -6.08115e+01 -2.16149e+01  5.47100e+01             
       H -7.03656e+01 -1.41111e+01  5.85725e+01             
       O -6.14645e+01 -3.05320e+01  5.09043e+01             
       H -6.12974e+01 -2.96756e+01  5.04905e+01             
       H -6.05585e+01 -3.09799e+01  5.08583e+01             
       O -7.00481e+01 -1.75074e+01  5.72747e+01             
       H -6.91534e+01 -1.78540e+01  5.70116e+01             
       H -6.99771e+01 -1.66504e+01  5.68584e+01             
       O -5.67605e+01 -4.19360e+01  5.22249e+01             
       H -5.63327e+01 -4.13977e+01  5.15609e+01             
       H -5.61696e+01 -4.19829e+01  6.54380e+01             
       O -6.31733e+01 -2.78662e+00  4.75733e+01             
       H -6.32933e+01 -3.53386e+00  4.69456e+01             
       H -6.22074e+01 -2.70066e+00  4.75877e+01             
       O -5.95930e+01 -2.31154e+01  5.84388e+01             
       H -5.88405e+01 -2.25967e+01  5.87548e+01             
       H -5.95512e+01 -2.31932e+01  5.74737e+01             
       O -6.37036e+01 -2.17472e+01  6.35551e+01             
       H -6.32290e+01 -2.10299e+01  6.39977e+01             
       H -6.31125e+01 -2.25686e+01  6.37511e+01             
       O -7.99972e+01 -1.97555e+01  4.98093e+01             
       H -7.91233e+01 -2.00187e+01  4.94061e+01             
       H -7.96565e+01 -1.90471e+01  5.03761e+01             
       O -5.55662e+01 -1.09134e+00  6.40920e+01             
       H -5.49091e+01 -4.30098e-01  6.38179e+01             
       H -5.52561e+01 -1.87808e+00  6.36645e+01             
       O -6.10535e+01 -1.20762e+01  4.14051e+01             
       H -6.10249e+01 -1.29750e+01  4.10517e+01             
       H -6.01196e+01 -1.18514e+01  2.90628e+01             
       O -5.72630e+01 -1.47493e+01  2.91825e+01             
       H -5.74031e+01 -1.54189e+01  2.85314e+01             
       H -6.88949e+01 -1.42766e+01  2.88553e+01             
       O -5.10418e+01 -1.56337e+01  2.55998e+01             
       H -5.09286e+01 -1.53620e+01  2.47109e+01             
       H -5.01969e+01 -1.54892e+01  2.61272e+01             
       O -5.68712e+01 -2.22434e+01  3.59474e+01             
       H -5.61233e+01 -2.18270e+01  3.55343e+01             
       H -5.65967e+01 -2.23263e+01  4.92599e+01             
       O -5.77502e+01 -1.35072e+01  3.73528e+01             
       H -6.38245e+01 -8.92277e+00  4.50543e+01             
       H -5.73066e+01 -1.31818e+01  3.81672e+01             
       O -5.85821e+01 -2.44285e+01  5.32567e+01             
       H -5.83892e+01 -2.52614e+01  5.36943e+01             
       H -5.77795e+01 -2.38599e+01  5.33082e+01             
       O -4.86437e+01 -1.47848e+01  3.99575e+01             
       H -4.85836e+01 -1.54014e+01  4.06705e+01             
       H -4.79639e+01 -1.51800e+01  3.92970e+01             
       O -5.35575e+01 -2.89644e+01  4.79703e+01             
       H -5.27749e+01 -2.86348e+01  4.83610e+01             
       H -5.35654e+01 -2.86446e+01  4.70566e+01             
       O -6.03584e+01 -2.81818e+00  6.03064e+01             
       H -5.96446e+01 -2.24995e+00  5.99107e+01             
       H -6.00129e+01 -2.87236e+00  6.12745e+01             
       O -5.34761e+01  9.32306e+00  7.02760e+01             
       H -5.30457e+01  8.72692e+00  6.96425e+01             
       H -5.27477e+01  1.00204e+01  7.01530e+01             
       O -5.93309e+01 -2.65617e+01  5.53820e+01             
       H -6.70799e+01 -2.00765e+01  4.18822e+01             
       H -5.85102e+01 -2.68377e+01  5.50149e+01             
       O -6.11905e+01 -1.63809e+01  5.49770e+01             
       H -5.70808e+01 -1.34600e+01  3.66784e+01             
       H -6.06572e+01 -1.57455e+01  5.54138e+01             
       O -5.24068e+01 -1.35842e+01  4.19693e+01             
       H -6.72503e+01 -6.08463e+00  4.54420e+01             
       H -5.21107e+01 -1.35185e+01  4.09736e+01             
       O -5.52101e+01 -2.81037e+01  5.02967e+01             
       H -6.68369e+01 -2.86390e+01  6.29892e+01             
       H -5.02629e+01 -6.20703e+00  6.20321e+01             
       O -8.91366e+01 -1.33113e+01  5.81132e+01             
       H -8.84427e+01 -1.30124e+01  5.75023e+01             
       H -8.86495e+01 -1.36362e+01  5.88739e+01             
       O -5.73161e+01 -3.10761e+01  4.87298e+01             
       H -5.64852e+01 -3.16143e+01  4.89179e+01             
       H -5.86955e+01 -1.28394e+01  5.88101e+01             
       O -6.39101e+01 -9.12168e+00  4.40963e+01             
       H -6.30602e+01 -8.72742e+00  4.37975e+01             
       H -7.65200e+01 -1.85535e+01  2.84112e+01             
       O -7.46492e+01 -2.11021e+01  4.69388e+01             
       H -7.38186e+01 -2.07671e+01  4.66219e+01             
       H -7.42827e+01 -2.17895e+01  4.74678e+01             
       O -5.65442e+01 -2.27445e+01  4.09381e+01             
       H -5.60628e+01 -2.26678e+01  4.00663e+01             
       H -5.59086e+01 -2.31972e+01  4.14659e+01             
       O -4.31401e+01 -2.57909e+01  4.77901e+01             
       H -4.22705e+01 -1.32767e+01  4.80995e+01             
       H -4.30522e+01 -2.52612e+01  4.69707e+01             
       O -5.74293e+01 -7.69545e+00  5.32360e+01             
       H -4.47828e+01 -8.58886e+00  5.35207e+01             
       H -5.66023e+01 -7.17922e+00  5.32220e+01             
       O -5.33136e+01  1.60163e+00  5.26005e+01             
       H -6.07714e+01 -2.94484e+01  4.76419e+01             
       H -6.63678e+01  2.79228e+00  4.72388e+01             
       O -6.95925e+01 -1.61027e+01  4.77023e+01             
       H -6.90485e+01 -1.53268e+01  4.75404e+01             
       H -6.97100e+01 -1.64914e+01  4.68050e+01             
       O -6.56092e+01 -6.57073e+00  3.41911e+01             
       H -6.46877e+01 -1.91514e+01  3.38908e+01             
       H -6.55513e+01 -5.82807e+00  3.48538e+01             
       O -7.12366e+01 -1.87318e+01  5.51836e+01             
       H -7.07160e+01 -1.86457e+01  5.60315e+01             
       H -7.06683e+01 -1.92545e+01  5.45585e+01             
       O -6.31778e+01 -1.71653e+01  5.80810e+01             
       H -6.31675e+01 -1.65845e+01  5.73093e+01             
       H -6.21558e+01 -1.72126e+01  5.83219e+01             
       O -7.35430e+01 -2.07301e+01  4.25436e+01             
       H -7.27086e+01 -2.02995e+01  5.52117e+01             
       H -6.75364e+01 -4.05487e+01  3.69318e+01             
       O -5.26372e+01 -2.06859e+01  6.14264e+01             
       H -5.19823e+01 -2.00298e+01  6.11604e+01             
       H -5.21189e+01 -2.10844e+01  6.21878e+01             
       O -5.90306e+01 -1.91658e+01  5.09811e+01             
       H -5.85382e+01 -1.95185e+01  5.17632e+01             
       H -5.83511e+01 -1.90047e+01  5.02893e+01             
       O -8.12656e+01 -2.16139e+01  5.66152e+01             
       H -8.08530e+01 -2.10581e+01  5.73109e+01             
       H -8.04961e+01 -2.18862e+01  5.61076e+01             
       O -5.54871e+01 -2.22590e+01  5.08239e+01             
       H -5.52864e+01 -2.13344e+01  5.05105e+01             
       H -5.45886e+01 -2.26411e+01  5.09260e+01             
       O -7.43490e+01 -1.18750e+01  2.25279e+01             
       H -7.35881e+01 -1.16369e+01  2.20236e+01             
       H -7.38597e+01 -1.23139e+01  2.32759e+01             
       O -6.49333e+01 -1.80513e+01  2.85830e+01             
       H -4.05724e+01 -1.17153e+01  4.01279e+01             
       H -6.45635e+01 -1.73573e+01  2.92802e+01             
       O -6.73552e+01 -1.24777e+01  5.49989e+01             
       H -6.69819e+01 -1.23772e+01  5.59010e+01             
       H -6.66269e+01 -1.29022e+01  5.45243e+01             
       O -6.86364e+01 -1.49740e+01  6.94822e+01             
       H -6.85678e+01 -1.42403e+01  6.88775e+01             
       H -6.77299e+01 -1.49926e+01  6.98317e+01             
192                                                         
# CELL(abcABC):   12.41850    12.41850    12.41850    90.00000    90.00000    90.00000  Step:      200000  Bead:       0 x_centroid{angstrom}  cell{angstrom}   
       O -8.32201e+01 -1.03764e+01  6.80848e+01             
       H -8.26900e+01 -1.10126e+01  6.75665e+01             
       H -8.26431e+01 -9.99938e+00  6.87944e+01             
       O -7.50444e+01 -9.83748e+00  6.92527e+01             
       H -7.34922e+01 -1.95007e+01  6.10099e+01             
       H -7.44091e+01 -1.06089e+01  6.92869e+01             
       O -8.14959e+01 -2.91753e+01  5.31082e+01             
       H -8.06990e+01 -1.62636e+01  5.28072e+01             
       H -8.13501e+01 -2.93837e+01  5.40647e+01             
       O -7.54989e+01 -2.67220e+01  5.55677e+01             
       H -7.48456e+01 -2.68678e+01  5.48129e+01             
       H -7.49867e+01 -2.65708e+01  5.64010e+01             
       O -5.90474e+01 -2.45369e+01  6.33931e+01             
       H -5.81734e+01 -2.48689e+01  6.36932e+01             
       H -5.87290e+01 -2.35764e+01  6.32308e+01             
       O -6.55179e+01 -1.92565e+01  7.13094e+01             
       H -6.45956e+01 -1.90675e+01  7.11352e+01             
       H -6.55397e+01 -1.97673e+01  7.21548e+01             
       O -7.81002e+01 -2.46408e+01  4.88193e+01             
       H -7.77459e+01 -2.46532e+01  4.96903e+01             
       H -6.22030e+01  9.75418e-01  6.03604e+01             
       O -6.37348e+01 -2.04584e+01  7.53089e+01             
       H -6.34120e+01 -2.13222e+01  7.56532e+01             
       H -6.29777e+01 -3.24620e+01  7.48013e+01             
       O -8.66330e+01 -1.35232e+01  4.54945e+01             
       H -8.61327e+01 -1.41774e+01  4.59856e+01             
       H -8.59944e+01 -1.30349e+01  4.49678e+01             
       O -7.81097e+01 -3.21220e+01  5.49882e+01             
       H -7.83890e+01 -3.28271e+01  5.55676e+01             
       H -7.71487e+01 -3.21115e+01  5.48730e+01             
       O -8.59062e+01 -1.08976e+01  6.53856e+01             
       H -8.55188e+01 -1.00768e+01  6.57631e+01             
       H -8.51771e+01 -1.13677e+01  6.50318e+01             
       O -7.95769e+01 -1.45925e+01  5.37927e+01             
       H -7.94167e+01 -1.36038e+01  5.35747e+01             
       H -6.48881e+01 -1.52395e+01  4.68361e+01             
       O -7.49133e+01 -3.52965e+01  5.07458e+01             
       H -7.44149e+01 -3.54739e+01  5.15544e+01             
       H -7.22970e+01 -2.95186e+01  6.31917e+01             
       O -8.48512e+01 -1.56160e+01  5.89276e+01             
       H -8.43955e+01 -1.58644e+01  5.80747e+01             
       H -8.41124e+01 -1.54419e+01  5.95764e+01             
       O -6.39282e+01 -2.74111e+01  6.06175e+01             
       H -6.31694e+01 -2.68220e+01  6.09540e+01             
       H -6.33702e+01 -2.82248e+01  6.04142e+01             
       O -7.95297e+01 -1.74223e+01  6.76738e+01             
       H -7.88356e+01 -1.67804e+01  6.79402e+01             
       H -7.89551e+01 -1.82206e+01  6.75406e+01             
       O -7.98703e+01 -1.43349e+01  4.85864e+01             
       H -7.93067e+01 -2.59250e+01  4.83180e+01             
       H -7.91458e+01 -1.46614e+01  4.91888e+01             
       O -7.70845e+01 -2.88290e+01  4.37004e+01             
       H -7.65503e+01 -2.81044e+01  4.34858e+01             
       H -7.64540e+01 -2.95373e+01  4.39603e+01             
       O -8.54856e+01 -1.51571e+01  5.44607e+01             
       H -8.47158e+01 -1.49523e+01  5.39415e+01             
       H -8.51294e+01 -1.54548e+01  5.53277e+01             
       O -8.10412e+01 -3.46603e-01  5.06057e+01             
       H -5.80832e+01 -1.92025e+01  5.76804e+01             
       H -8.06256e+01  5.77494e-01  5.06454e+01             
       O -7.00911e+01 -1.89953e+01  6.43911e+01             
       H -7.07590e+01 -2.48635e+01  6.14419e+01             
       H -8.20303e+01 -1.81489e+01  6.46126e+01             
       O -7.33656e+01 -3.25932e+01  5.62342e+01             
       H -7.31947e+01 -3.25623e+01  5.52628e+01             
       H -7.24983e+01 -3.27214e+01  5.66359e+01             
       O -8.27461e+01 -2.19228e+01  6.37582e+01             
       H -8.28914e+01 -2.13065e+01  6.29958e+01             
       H -8.17963e+01 -2.19143e+01  6.39137e+01             
       O -6.88275e+01 -4.28372e+01  6.15097e+01             
       H -6.81971e+01 -4.26922e+01  6.07246e+01             
       H -6.83889e+01 -4.25946e+01  7.47489e+01             
       O -7.54987e+01 -7.35400e+00  5.42395e+01             
       H -7.52280e+01 -8.23805e+00  5.39670e+01             
       H -7.49348e+01 -6.65820e+00  5.37878e+01             
       O -7.08801e+01 -2.72797e+01  6.51568e+01             
       H -7.01621e+01 -2.79176e+01  6.53008e+01             
       H -7.05247e+01 -2.64242e+01  6.52951e+01             
       O -7.31828e+01 -2.30215e+01  7.31779e+01             
       H -7.29481e+01 -2.20165e+01  7.30312e+01             
       H -7.23578e+01 -2.34717e+01  7.30255e+01             
       O -9.11407e+01 -2.12582e+01  5.73658e+01             
       H -9.04156e+01 -2.18824e+01  5.77313e+01             
       H -9.09307e+01 -2.03937e+01  5.77892e+01             
       O -6.90035e+01 -1.99181e+00  6.87044e+01             
       H -6.84323e+01 -1.70389e+00  6.94793e+01             
       H -6.85075e+01 -2.51081e+00  6.81137e+01             
       O -7.18704e+01 -1.56956e+01  5.02093e+01             
       H -7.13556e+01 -1.54793e+01  4.94067e+01             
       H -7.16089e+01 -1.51438e+01  3.85721e+01             
       O -7.01027e+01 -1.56815e+01  3.56680e+01             
       H -6.96820e+01 -1.65546e+01  3.59255e+01             
       H -8.17168e+01 -1.51480e+01  3.55157e+01             
       O -6.30269e+01 -1.83823e+01  3.26330e+01             
       H -6.22814e+01 -1.88631e+01  3.22299e+01             
       H -6.27745e+01 -1.77417e+01  3.33410e+01             
       O -6.92488e+01 -2.48364e+01  4.17597e+01             
       H -6.84364e+01 -2.44002e+01  4.14874e+01             
       H -6.89737e+01 -2.56105e+01  5.48079e+01             
       O -7.11419e+01 -1.60943e+01  4.39458e+01             
       H -7.31784e+01 -1.32640e+01  4.88902e+01             
       H -7.04386e+01 -1.53592e+01  4.38301e+01             
       O -7.29974e+01 -2.41922e+01  5.61160e+01             
       H -7.20572e+01 -2.38079e+01  5.61397e+01             
       H -7.32778e+01 -2.38905e+01  5.52597e+01             
       O -6.22763e+01 -1.70902e+01  4.72787e+01             
       H -6.19544e+01 -1.78278e+01  4.79111e+01             
       H -6.14310e+01 -1.66061e+01  4.70040e+01             
       O -6.60526e+01 -3.21984e+01  5.22062e+01             
       H -6.52229e+01 -3.23956e+01  5.18267e+01             
       H -6.58784e+01 -3.22213e+01  5.31765e+01             
       O -7.21015e+01 -8.65221e+00  6.61378e+01             
       H -7.15930e+01 -8.48934e+00  6.53159e+01             
       H -7.14390e+01 -9.04406e+00  6.66886e+01             
       O -6.72433e+01  7.30410e+00  7.57519e+01             
       H -6.68508e+01  6.58599e+00  7.62323e+01             
       H -6.65277e+01  7.92546e+00  7.54897e+01             
       O -7.27331e+01 -3.02759e+01  6.36218e+01             
       H -7.73141e+01 -2.45074e+01  4.82711e+01             
       H -7.19835e+01 -3.08307e+01  6.38959e+01             
       O -7.40951e+01 -1.89557e+01  6.15528e+01             
       H -7.04726e+01 -1.68108e+01  4.43396e+01             
       H -7.36448e+01 -1.87002e+01  6.23630e+01             
       O -6.56033e+01 -1.54295e+01  4.61814e+01             
       H -8.07339e+01 -1.32564e+01  4.97573e+01             
       H -6.51850e+01 -1.56545e+01  4.52874e+01             
       O -6.75430e+01 -2.99608e+01  5.92446e+01             
       H -7.91512e+01 -3.05578e+01  7.14347e+01             
       H -6.20563e+01 -9.04677e+00  6.90597e+01             
       O -1.02693e+02 -1.56012e+01  6.28107e+01             
       H -1.02014e+02 -1.52560e+01  6.22044e+01             
       H -1.02280e+02 -1.56261e+01  6.37139e+01             
       O -7.08167e+01 -3.25075e+01  5.77595e+01             
       H -6.99860e+01 -3.30784e+01  5.77083e+01             
       H -6.95127e+01 -1.94585e+01  6.37905e+01             
       O -7.37728e+01 -1.38969e+01  4.92737e+01             
       H -7.31942e+01 -1.46126e+01  4.95066e+01             
       H -8.99064e+01 -2.17445e+01  3.56290e+01             
       O -8.88428e+01 -2.82299e+01  5.28021e+01             
       H -8.81547e+01 -2.75681e+01  5.25565e+01             
       H -8.82881e+01 -2.90709e+01  5.29179e+01             
       O -6.71728e+01 -2.57688e+01  4.56620e+01             
       H -6.66466e+01 -2.64286e+01  4.61793e+01             
       H -6.64773e+01 -2.53651e+01  4.50742e+01             
       O -5.67921e+01 -3.02929e+01  5.69816e+01             
       H -5.62588e+01 -1.76259e+01  5.77350e+01             
       H -5.61887e+01 -3.01246e+01  5.61865e+01             
       O -6.89939e+01 -9.53217e+00  5.75601e+01             
       H -5.56175e+01 -9.21630e+00  5.75179e+01             
       H -6.89584e+01 -1.02170e+01  5.82854e+01             
       O -6.29759e+01  5.24483e-01  5.99525e+01             
       H -7.41606e+01 -3.52948e+01  5.00968e+01             
       H -7.87179e+01 -2.59120e+00  5.36601e+01             
       O -7.70491e+01 -2.48373e+01  5.14863e+01             
       H -7.64926e+01 -2.40669e+01  5.11525e+01             
       H -7.64678e+01 -2.56032e+01  5.14589e+01             
       O -7.75853e+01 -1.24036e+01  4.36971e+01             
       H -7.69783e+01 -2.41698e+01  4.39394e+01             
       H -7.70210e+01 -1.31200e+01  4.32208e+01             
       O -8.27558e+01 -2.00975e+01  6.16220e+01             
       H -8.20554e+01 -2.07201e+01  6.12856e+01             
       H -8.22060e+01 -1.92914e+01  6.16242e+01             
       O -7.47214e+01 -2.60708e+01  6.44065e+01             
       H -7.40547e+01 -2.56678e+01  6.50214e+01             
       H -7.43178e+01 -2.59215e+01  6.35158e+01             
       O -8.33405e+01 -2.46267e+01  4.81007e+01             
       H -8.24216e+01 -2.45643e+01  6.01537e+01             
       H -7.95325e+01 -4.15109e+01  4.65907e+01             
       O -6.45678e+01 -2.27103e+01  7.12541e+01             
       H -6.38541e+01 -2.22391e+01  7.08018e+01             
       H -6.40661e+01 -2.34865e+01  7.16035e+01             
       O -7.24052e+01 -2.03418e+01  6.01494e+01             
       H -7.15766e+01 -2.01943e+01  6.05465e+01             
       H -7.21711e+01 -2.03148e+01  5.92007e+01             
       O -9.29337e+01 -2.18050e+01  6.13693e+01             
       H -9.20633e+01 -2.15364e+01  6.12511e+01             
       H -9.28303e+01 -2.20965e+01  6.23272e+01             
       O -6.65460e+01 -2.41492e+01  5.35188e+01             
       H -6.59307e+01 -2.40770e+01  5.42867e+01             
       H -6.59051e+01 -2.45018e+01  5.28180e+01             
       O -8.67877e+01 -1.75071e+01  2.83074e+01             
       H -8.60320e+01 -1.75460e+01  2.75865e+01             
       H -8.64482e+01 -1.67954e+01  2.88805e+01             
       O -7.78483e+01 -2.09634e+01  3.60454e+01             
       H -5.00385e+01 -1.25307e+01  4.69384e+01             
       H -7.71587e+01 -2.07834e+01  3.67495e+01             
       O -8.11413e+01 -1.17058e+01  5.94323e+01             
       H -8.05868e+01 -1.11784e+01  6.00135e+01             
       H -8.04716e+01 -1.22372e+01  5.88850e+01             
       O -7.99962e+01 -2.21760e+01  7.64810e+01             
       H -7.96481e+01 -2.27413e+01  7.71709e+01             
       H -7.95361e+01 -2.13121e+01  7.66523e+01             
