192                                                         
# CELL(abcABC):   12.41850    12.41850    12.41850    90.00000    90.00000    90.00000  Step:           0  Bead:       0 x_centroid{angstrom}  cell{angstrom}   
       O -7.17784e+01 -8.64291e+00  6.13922e+01             
       H -7.15454e+01 -8.48352e+00  6.04864e+01             
       H -7.10734e+01 -8.15871e+00  6.18997e+01             
       O -6.19931e+01 -7.57713e+00  6.21634e+01             
       H -5.83882e+01 -1.67740e+01  5.44629e+01             
       H -6.12926e+01 -6.99285e+00  6.17745e+01             
       O -6.55387e+01 -2.40915e+01  4.53670e+01             
       H -6.47009e+01 -1.21187e+01  4.52173e+01             
       H -6.52352e+01 -2.31833e+01  4.55420e+01             
       O -6.14070e+01 -2.39603e+01  5.11471e+01             
       H -6.08987e+01 -2.42947e+01  5.04604e+01             
       H -6.08048e+01 -2.40710e+01  5.19097e+01             
       O -4.96364e+01 -1.94449e+01  5.31999e+01             
       H -4.93456e+01 -1.96256e+01  5.41002e+01             
       H -4.88813e+01 -1.89082e+01  5.29023e+01             
       O -5.31648e+01 -1.70079e+01  6.34182e+01             
       H -5.27307e+01 -1.62244e+01  6.30682e+01             
       H -5.25965e+01 -1.72464e+01  6.42243e+01             
       O -6.59253e+01 -1.90238e+01  4.31120e+01             
       H -6.52213e+01 -1.85829e+01  4.26050e+01             
       H -5.25642e+01  2.55835e+00  5.16530e+01             
       O -4.94664e+01 -1.59234e+01  6.73159e+01             
       H -4.93495e+01 -1.49322e+01  6.73613e+01             
       H -4.85157e+01 -2.86627e+01  6.75328e+01             
       O -7.05580e+01 -8.65223e+00  4.24771e+01             
       H -6.98655e+01 -8.48004e+00  4.31114e+01             
       H -7.01821e+01 -9.18923e+00  4.18050e+01             
       O -6.46487e+01 -2.31264e+01  4.89535e+01             
       H -6.41979e+01 -2.38911e+01  4.92459e+01             
       H -6.39684e+01 -2.25655e+01  4.84727e+01             
       O -6.92742e+01 -6.39703e+00  5.82057e+01             
       H -6.85225e+01 -6.45579e+00  5.87616e+01             
       H -6.89426e+01 -6.35241e+00  5.73142e+01             
       O -6.46839e+01 -8.93600e+00  4.51739e+01             
       H -6.38517e+01 -8.94001e+00  4.47011e+01             
       H -5.24392e+01 -1.20040e+01  4.20166e+01             
       O -5.95875e+01 -3.02012e+01  4.48930e+01             
       H -5.89732e+01 -3.05770e+01  4.55574e+01             
       H -5.70809e+01 -2.56921e+01  5.36776e+01             
       O -7.01797e+01 -1.66067e+01  4.80464e+01             
       H -6.93660e+01 -1.71133e+01  4.82200e+01             
       H -6.99145e+01 -1.58373e+01  4.85867e+01             
       O -4.84934e+01 -2.55776e+01  5.51105e+01             
       H -4.76313e+01 -2.56281e+01  5.54752e+01             
       H -4.84294e+01 -2.49157e+01  5.44197e+01             
       O -6.30318e+01 -8.38247e+00  5.96970e+01             
       H -6.26041e+01 -7.90432e+00  6.04414e+01             
       H -6.23052e+01 -8.60015e+00  5.91170e+01             
       O -6.60647e+01 -9.03493e+00  4.22692e+01             
       H -6.52107e+01 -2.18565e+01  4.23695e+01             
       H -6.62306e+01 -9.30115e+00  4.13263e+01             
       O -6.39766e+01 -2.50796e+01  3.88737e+01             
       H -6.30234e+01 -2.47571e+01  3.88850e+01             
       H -6.40407e+01 -2.61095e+01  3.89134e+01             
       O -7.08991e+01 -1.11901e+01  4.98026e+01             
       H -7.12570e+01 -1.03283e+01  4.94025e+01             
       H -6.99993e+01 -1.12026e+01  4.95286e+01             
       O -6.61302e+01  6.13693e+00  4.57429e+01             
       H -4.22271e+01 -1.76978e+01  4.92505e+01             
       H -6.59896e+01  5.92362e+00  4.48018e+01             
       O -5.76552e+01 -1.38258e+01  5.65271e+01             
       H -5.95962e+01 -2.02256e+01  5.53521e+01             
       H -6.96326e+01 -1.46298e+01  5.61840e+01             
       O -6.00261e+01 -3.01635e+01  5.24763e+01             
       H -5.91448e+01 -3.01374e+01  5.29094e+01             
       H -6.03215e+01 -2.92328e+01  5.25929e+01             
       O -6.83306e+01 -1.76609e+01  5.54325e+01             
       H -6.75835e+01 -1.82132e+01  5.52952e+01             
       H -6.78995e+01 -1.68399e+01  5.58605e+01             
       O -5.75683e+01 -4.04131e+01  5.14970e+01             
       H -5.67472e+01 -4.00578e+01  5.12694e+01             
       H -5.72789e+01 -4.11630e+01  6.44388e+01             
       O -6.18997e+01 -1.76994e+00  4.72587e+01             
       H -6.13547e+01 -2.44146e+00  4.68634e+01             
       H -6.11692e+01 -1.19135e+00  4.75920e+01             
       O -5.58804e+01 -2.41539e+01  5.69205e+01             
       H -5.60754e+01 -2.32286e+01  5.67757e+01             
       H -5.49311e+01 -2.42549e+01  5.72649e+01             
       O -6.30088e+01 -2.16489e+01  6.43686e+01             
       H -6.27090e+01 -2.07789e+01  6.46203e+01             
       H -6.23454e+01 -2.20257e+01  6.37765e+01             
       O -7.89253e+01 -2.01584e+01  4.79298e+01             
       H -7.87394e+01 -1.97711e+01  4.70284e+01             
       H -7.81634e+01 -1.98358e+01  4.84261e+01             
       O -5.50311e+01 -5.15638e-01  6.32035e+01             
       H -5.45779e+01 -8.20055e-01  6.24141e+01             
       H -5.46253e+01 -1.00310e+00  6.39244e+01             
       O -5.97736e+01 -1.14996e+01  4.06574e+01             
       H -5.90382e+01 -1.21787e+01  4.08057e+01             
       H -5.92812e+01 -1.07128e+01  2.81202e+01             
       O -5.55917e+01 -1.24764e+01  2.93421e+01             
       H -5.46222e+01 -1.26204e+01  2.91811e+01             
       H -6.80863e+01 -1.22380e+01  3.03070e+01             
       O -5.11367e+01 -1.52929e+01  2.67095e+01             
       H -5.11398e+01 -1.59045e+01  2.74628e+01             
       H -5.02128e+01 -1.52250e+01  2.64228e+01             
       O -5.80362e+01 -2.12759e+01  3.37667e+01             
       H -5.76790e+01 -2.04978e+01  3.33169e+01             
       H -5.72948e+01 -2.16749e+01  4.66192e+01             
       O -5.69021e+01 -1.38330e+01  3.56837e+01             
       H -6.30425e+01 -1.03012e+01  4.29212e+01             
       H -5.62310e+01 -1.30874e+01  3.57317e+01             
       O -5.71612e+01 -2.26436e+01  5.28964e+01             
       H -5.65663e+01 -2.33208e+01  5.32577e+01             
       H -5.67944e+01 -2.23154e+01  5.20324e+01             
       O -4.85182e+01 -1.54049e+01  3.84730e+01             
       H -4.76095e+01 -1.51273e+01  3.86943e+01             
       H -4.83436e+01 -1.61836e+01  3.78954e+01             
       O -5.23815e+01 -2.72784e+01  4.82117e+01             
       H -5.20201e+01 -2.81240e+01  4.79420e+01             
       H -5.17190e+01 -2.66938e+01  4.78370e+01             
       O -5.91092e+01 -2.31610e+00  5.85610e+01             
       H -5.83835e+01 -1.97300e+00  5.79205e+01             
       H -5.85293e+01 -2.85299e+00  5.91138e+01             
       O -5.15681e+01  7.64217e+00  7.19004e+01             
       H -5.07238e+01  7.93778e+00  7.14568e+01             
       H -5.12907e+01  6.94101e+00  7.25125e+01             
       O -5.80112e+01 -2.60187e+01  5.34058e+01             
       H -6.59285e+01 -1.99651e+01  4.27180e+01             
       H -5.79437e+01 -2.65576e+01  5.25883e+01             
       O -5.89988e+01 -1.61703e+01  5.48438e+01             
       H -5.64671e+01 -1.44567e+01  3.50478e+01             
       H -5.86609e+01 -1.52947e+01  5.45824e+01             
       O -5.28264e+01 -1.26995e+01  4.14657e+01             
       H -6.52586e+01 -5.91241e+00  4.60309e+01             
       H -5.22769e+01 -1.25948e+01  4.06645e+01             
       O -5.43052e+01 -2.73384e+01  5.25752e+01             
       H -6.59653e+01 -2.74239e+01  6.55567e+01             
       H -4.90627e+01 -8.35231e+00  6.24352e+01             
       O -8.79207e+01 -1.31900e+01  5.71959e+01             
       H -8.74501e+01 -1.30105e+01  5.63724e+01             
       H -8.72443e+01 -1.35471e+01  5.77209e+01             
       O -5.53685e+01 -3.06366e+01  4.89787e+01             
       H -5.49840e+01 -3.14324e+01  4.85992e+01             
       H -5.69594e+01 -1.32974e+01  5.68555e+01             
       O -6.35495e+01 -1.04676e+01  4.21317e+01             
       H -6.30081e+01 -1.03203e+01  4.13691e+01             
       H -7.56734e+01 -1.81305e+01  2.82286e+01             
       O -7.29179e+01 -2.23769e+01  4.62339e+01             
       H -7.28662e+01 -2.32975e+01  4.65421e+01             
       H -7.20664e+01 -2.20003e+01  4.61310e+01             
       O -5.57623e+01 -2.16407e+01  3.84297e+01             
       H -5.57219e+01 -2.19141e+01  3.74693e+01             
       H -5.48991e+01 -2.18794e+01  3.87995e+01             
       O -4.20674e+01 -2.45847e+01  4.76374e+01             
       H -4.13977e+01 -1.17495e+01  4.81912e+01             
       H -4.16158e+01 -2.46233e+01  4.67707e+01             
       O -5.73467e+01 -7.18391e+00  5.07018e+01             
       H -4.41308e+01 -7.81796e+00  5.08844e+01             
       H -5.70305e+01 -6.52989e+00  5.00713e+01             
       O -5.34710e+01  2.34703e+00  5.19132e+01             
       H -5.90647e+01 -2.95347e+01  4.44417e+01             
       H -6.45183e+01  3.82122e+00  4.60775e+01             
       O -6.71277e+01 -1.55927e+01  4.68195e+01             
       H -6.67585e+01 -1.64199e+01  4.64897e+01             
       H -6.63780e+01 -1.50722e+01  4.71427e+01             
       O -6.20103e+01 -4.18087e+00  3.30847e+01             
       H -6.10724e+01 -1.69141e+01  3.29785e+01             
       H -6.23130e+01 -4.03695e+00  3.21683e+01             
       O -6.93567e+01 -1.76103e+01  5.30412e+01             
       H -6.88115e+01 -1.76541e+01  5.37948e+01             
       H -6.92721e+01 -1.84717e+01  5.26046e+01             
       O -6.20344e+01 -2.19715e+01  5.66230e+01             
       H -6.14755e+01 -2.12476e+01  5.63197e+01             
       H -6.14756e+01 -2.24190e+01  5.73164e+01             
       O -7.29038e+01 -1.99493e+01  4.32630e+01             
       H -7.26748e+01 -1.92887e+01  5.63551e+01             
       H -6.67384e+01 -4.06172e+01  3.97151e+01             
       O -5.22613e+01 -1.92887e+01  6.20159e+01             
       H -5.13520e+01 -1.95698e+01  6.22779e+01             
       H -5.23694e+01 -1.84239e+01  6.24625e+01             
       O -5.99860e+01 -1.75578e+01  4.93884e+01             
       H -5.94182e+01 -1.79536e+01  5.00567e+01             
       H -5.94111e+01 -1.72817e+01  4.86230e+01             
       O -8.04431e+01 -2.13448e+01  5.65352e+01             
       H -8.00058e+01 -2.11283e+01  5.73841e+01             
       H -7.96757e+01 -2.14587e+01  5.59340e+01             
       O -5.59655e+01 -2.22517e+01  4.78004e+01             
       H -5.53989e+01 -2.15072e+01  4.78134e+01             
       H -5.54533e+01 -2.29927e+01  4.73802e+01             
       O -7.21717e+01 -1.24624e+01  2.28266e+01             
       H -7.17340e+01 -1.32617e+01  2.24717e+01             
       H -7.17837e+01 -1.22436e+01  2.37134e+01             
       O -6.39036e+01 -1.74250e+01  2.84453e+01             
       H -4.11806e+01 -1.10121e+01  3.93297e+01             
       H -6.38260e+01 -1.70387e+01  2.93051e+01             
       O -6.46462e+01 -1.50773e+01  5.53029e+01             
       H -6.38686e+01 -1.48724e+01  5.57928e+01             
       H -6.48812e+01 -1.41992e+01  5.49290e+01             
       O -6.72500e+01 -1.53954e+01  6.87997e+01             
       H -6.62838e+01 -1.53154e+01  6.85338e+01             
       H -6.72860e+01 -1.53633e+01  6.97392e+01             
192                                                         
# CELL(abcABC):   12.41850    12.41850    12.41850    90.00000    90.00000    90.00000  Step:      200000  Bead:       0 x_centroid{angstrom}  cell{angstrom}   
       O -8.63730e+01 -9.92026e+00  6.72496e+01             
       H -8.60443e+01 -1.02829e+01  6.64030e+01             
       H -8.57191e+01 -9.21114e+00  6.74828e+01             
       O -7.21370e+01 -5.42354e+00  6.68153e+01             
       H -7.14360e+01 -1.95180e+01  5.87687e+01             
       H -7.14482e+01 -5.53996e+00  6.61072e+01             
       O -7.86286e+01 -2.43200e+01  5.20371e+01             
       H -7.79516e+01 -1.17757e+01  5.26982e+01             
       H -7.81708e+01 -2.42831e+01  5.11877e+01             
       O -7.22058e+01 -2.76735e+01  5.76130e+01             
       H -7.19711e+01 -2.76540e+01  5.85110e+01             
       H -7.13921e+01 -2.79432e+01  5.72000e+01             
       O -6.20916e+01 -2.09270e+01  5.79853e+01             
       H -6.15209e+01 -2.03659e+01  5.74473e+01             
       H -6.14045e+01 -2.14640e+01  5.85103e+01             
       O -6.40547e+01 -2.13599e+01  6.69774e+01             
       H -6.31351e+01 -2.16194e+01  6.69741e+01             
       H -6.41180e+01 -2.04608e+01  6.72588e+01             
       O -7.96490e+01 -1.98663e+01  5.03856e+01             
       H -7.91567e+01 -1.90397e+01  5.02151e+01             
       H -6.39021e+01  7.64803e-01  5.78079e+01             
       O -6.12597e+01 -1.86238e+01  7.37769e+01             
       H -6.09206e+01 -1.78518e+01  7.43113e+01             
       H -6.07943e+01 -3.10124e+01  7.28952e+01             
       O -8.36402e+01 -1.17246e+01  5.04939e+01             
       H -8.27722e+01 -1.19065e+01  5.08596e+01             
       H -8.36799e+01 -1.07804e+01  5.02819e+01             
       O -7.90228e+01 -2.84040e+01  5.61346e+01             
       H -7.90810e+01 -2.90969e+01  5.54157e+01             
       H -7.80752e+01 -2.81304e+01  5.62497e+01             
       O -8.37327e+01 -8.95123e+00  6.40469e+01             
       H -8.30661e+01 -9.25394e+00  6.46929e+01             
       H -8.32763e+01 -8.43633e+00  6.33189e+01             
       O -7.47967e+01 -1.53676e+01  5.19651e+01             
       H -7.40606e+01 -1.57412e+01  5.14509e+01             
       H -6.21466e+01 -1.49893e+01  4.90381e+01             
       O -7.40266e+01 -3.35216e+01  5.10191e+01             
       H -7.31282e+01 -3.36765e+01  5.13358e+01             
       H -6.97187e+01 -2.91392e+01  6.04505e+01             
       O -8.17476e+01 -2.17202e+01  5.39187e+01             
       H -8.16074e+01 -2.22799e+01  5.47069e+01             
       H -8.08275e+01 -2.12799e+01  5.37670e+01             
       O -6.04141e+01 -2.90308e+01  6.30453e+01             
       H -5.95763e+01 -2.95228e+01  6.32807e+01             
       H -5.99875e+01 -2.82131e+01  6.27292e+01             
       O -7.60807e+01 -1.51387e+01  6.86459e+01             
       H -7.58581e+01 -1.41773e+01  6.85224e+01             
       H -7.55090e+01 -1.55927e+01  6.79653e+01             
       O -7.88590e+01 -1.07018e+01  4.79053e+01             
       H -7.85253e+01 -2.23866e+01  4.85121e+01             
       H -7.80859e+01 -1.10653e+01  4.74058e+01             
       O -7.71185e+01 -2.77787e+01  4.63943e+01             
       H -7.66750e+01 -2.79635e+01  4.54964e+01             
       H -7.65002e+01 -2.72072e+01  4.69346e+01             
       O -8.19567e+01 -1.55972e+01  5.71609e+01             
       H -8.16772e+01 -1.63289e+01  5.65014e+01             
       H -8.12621e+01 -1.52758e+01  5.78010e+01             
       O -7.68848e+01 -1.81505e-01  5.44423e+01             
       H -5.50106e+01 -2.29238e+01  5.66644e+01             
       H -7.62467e+01  9.75263e-02  5.51748e+01             
       O -6.87612e+01 -1.63303e+01  6.53161e+01             
       H -7.20472e+01 -2.27044e+01  5.86451e+01             
       H -8.06168e+01 -1.59936e+01  6.46704e+01             
       O -6.93242e+01 -3.01847e+01  5.53201e+01             
       H -6.88960e+01 -3.10017e+01  5.55465e+01             
       H -6.89609e+01 -2.98807e+01  5.44670e+01             
       O -8.28256e+01 -2.08242e+01  5.76857e+01             
       H -8.25778e+01 -2.17749e+01  5.78210e+01             
       H -8.19637e+01 -2.03777e+01  5.74870e+01             
       O -6.73419e+01 -4.27457e+01  5.85710e+01             
       H -6.71504e+01 -4.19261e+01  5.80393e+01             
       H -6.65295e+01 -4.29834e+01  7.15334e+01             
       O -7.44559e+01 -6.58464e+00  5.31291e+01             
       H -7.41698e+01 -7.32360e+00  5.26072e+01             
       H -7.36823e+01 -6.03027e+00  5.34442e+01             
       O -6.95140e+01 -2.63304e+01  6.62365e+01             
       H -6.92300e+01 -2.57356e+01  6.54955e+01             
       H -6.89130e+01 -2.61369e+01  6.70203e+01             
       O -7.22302e+01 -2.49425e+01  6.95005e+01             
       H -7.13140e+01 -2.45818e+01  6.96747e+01             
       H -7.21773e+01 -2.58624e+01  6.97352e+01             
       O -9.18347e+01 -2.56365e+01  5.50768e+01             
       H -9.16419e+01 -2.65278e+01  5.55183e+01             
       H -9.09155e+01 -2.53954e+01  5.47650e+01             
       O -6.51151e+01 -5.56685e+00  7.23849e+01             
       H -6.47017e+01 -4.76536e+00  7.19724e+01             
       H -6.44237e+01 -6.23510e+00  7.24229e+01             
       O -6.93347e+01 -1.50596e+01  4.82536e+01             
       H -6.87563e+01 -1.50709e+01  4.90861e+01             
       H -6.87675e+01 -1.46393e+01  3.51277e+01             
       O -6.54836e+01 -1.31540e+01  3.72045e+01             
       H -6.46708e+01 -1.37199e+01  3.72216e+01             
       H -7.79669e+01 -1.26240e+01  3.63887e+01             
       O -6.33242e+01 -1.82083e+01  3.06417e+01             
       H -6.29758e+01 -1.87183e+01  2.99161e+01             
       H -6.27026e+01 -1.79532e+01  3.13219e+01             
       O -7.31566e+01 -2.40232e+01  4.02203e+01             
       H -7.24519e+01 -2.41964e+01  3.95228e+01             
       H -7.27610e+01 -2.45865e+01  5.33210e+01             
       O -6.80514e+01 -1.98123e+01  4.42428e+01             
       H -7.68643e+01 -9.76119e+00  5.00887e+01             
       H -6.74072e+01 -2.01870e+01  4.36804e+01             
       O -6.88837e+01 -2.39493e+01  6.04306e+01             
       H -6.91004e+01 -2.46617e+01  6.10947e+01             
       H -6.79420e+01 -2.37326e+01  6.05820e+01             
       O -6.15083e+01 -1.76747e+01  4.51266e+01             
       H -6.07664e+01 -1.81727e+01  4.55090e+01             
       H -6.10633e+01 -1.68294e+01  4.49472e+01             
       O -6.68336e+01 -3.29555e+01  5.44593e+01             
       H -6.61121e+01 -3.35692e+01  5.42527e+01             
       H -6.63897e+01 -3.20796e+01  5.41663e+01             
       O -7.08175e+01 -5.24423e+00  6.44700e+01             
       H -7.00275e+01 -4.70579e+00  6.47806e+01             
       H -7.04365e+01 -5.85164e+00  6.38892e+01             
       O -6.28611e+01 -4.28593e-01  7.70046e+01             
       H -6.20494e+01 -9.91688e-02  7.74283e+01             
       H -6.27230e+01 -1.36429e+00  7.68156e+01             
       O -6.98980e+01 -3.00613e+01  6.03813e+01             
       H -7.88844e+01 -2.04812e+01  5.02159e+01             
       H -6.92012e+01 -3.04106e+01  5.97698e+01             
       O -7.19501e+01 -1.87157e+01  5.87614e+01             
       H -6.75605e+01 -1.92513e+01  4.48893e+01             
       H -7.13680e+01 -1.81207e+01  5.92248e+01             
       O -6.27824e+01 -1.44810e+01  4.84944e+01             
       H -7.62155e+01 -1.27586e+01  5.36495e+01             
       H -6.24683e+01 -1.34962e+01  4.83356e+01             
       O -6.56341e+01 -3.48864e+01  5.67283e+01             
       H -7.72786e+01 -3.45299e+01  6.85707e+01             
       H -5.95351e+01 -6.21487e+00  6.74190e+01             
       O -1.01368e+02 -1.75468e+01  6.43360e+01             
       H -1.00982e+02 -1.66696e+01  6.43184e+01             
       H -1.00656e+02 -1.81095e+01  6.45878e+01             
       O -6.81883e+01 -3.58863e+01  5.62962e+01             
       H -6.76676e+01 -3.66085e+01  5.58073e+01             
       H -6.89791e+01 -1.55009e+01  6.58463e+01             
       O -7.75280e+01 -9.04294e+00  4.96985e+01             
       H -7.68586e+01 -8.48142e+00  4.92710e+01             
       H -8.77161e+01 -2.01452e+01  3.46130e+01             
       O -8.43858e+01 -2.70348e+01  4.92657e+01             
       H -8.45145e+01 -2.60645e+01  4.94034e+01             
       H -8.34361e+01 -2.71939e+01  4.90479e+01             
       O -6.73488e+01 -2.66491e+01  4.65479e+01             
       H -6.70361e+01 -2.57423e+01  4.63789e+01             
       H -6.64752e+01 -2.71827e+01  4.64913e+01             
       O -5.51770e+01 -2.75875e+01  5.01578e+01             
       H -5.45868e+01 -1.44184e+01  5.00141e+01             
       H -5.45266e+01 -2.83659e+01  5.00970e+01             
       O -7.01182e+01 -1.11627e+01  5.79767e+01             
       H -5.74116e+01 -1.14229e+01  5.89089e+01             
       H -6.92835e+01 -1.10653e+01  5.73863e+01             
       O -6.43921e+01  7.75240e-01  5.86385e+01             
       H -7.37412e+01 -3.28107e+01  5.03677e+01             
       H -7.45729e+01 -3.12831e+00  5.29595e+01             
       O -7.82002e+01 -1.81365e+01  5.41851e+01             
       H -7.77005e+01 -1.79801e+01  5.33184e+01             
       H -7.74424e+01 -1.81278e+01  5.48651e+01             
       O -7.57347e+01 -1.07561e+01  3.80265e+01             
       H -7.50360e+01 -2.24437e+01  3.80372e+01             
       H -7.56652e+01 -1.13900e+01  3.87737e+01             
       O -8.29482e+01 -2.17432e+01  6.11926e+01             
       H -8.22907e+01 -2.25034e+01  6.10086e+01             
       H -8.23619e+01 -2.09516e+01  6.14220e+01             
       O -7.48074e+01 -2.41870e+01  6.05266e+01             
       H -7.40680e+01 -2.36579e+01  6.01670e+01             
       H -7.51038e+01 -2.36150e+01  6.13422e+01             
       O -8.49923e+01 -2.22876e+01  4.69208e+01             
       H -8.43458e+01 -2.18638e+01  5.99688e+01             
       H -7.78215e+01 -4.72580e+01  4.52347e+01             
       O -6.24492e+01 -2.42176e+01  6.87206e+01             
       H -6.16018e+01 -2.44374e+01  6.91446e+01             
       H -6.23238e+01 -2.33322e+01  6.82659e+01             
       O -7.17639e+01 -2.04286e+01  5.53806e+01             
       H -7.10813e+01 -2.08480e+01  5.48477e+01             
       H -7.12922e+01 -2.05866e+01  5.62719e+01             
       O -9.37323e+01 -2.43309e+01  6.43068e+01             
       H -9.38386e+01 -2.35258e+01  6.47676e+01             
       H -9.27479e+01 -2.43367e+01  6.42445e+01             
       O -7.23018e+01 -2.58901e+01  5.45585e+01             
       H -7.23241e+01 -2.54133e+01  5.54273e+01             
       H -7.14141e+01 -2.60857e+01  5.42405e+01             
       O -8.63075e+01 -1.58796e+01  2.96180e+01             
       H -8.57474e+01 -1.51061e+01  2.98280e+01             
       H -8.57389e+01 -1.66691e+01  2.97510e+01             
       O -7.57183e+01 -1.98403e+01  3.54514e+01             
       H -5.12753e+01 -1.17344e+01  4.68550e+01             
       H -7.49767e+01 -1.93860e+01  3.59957e+01             
       O -7.83837e+01 -1.73843e+01  6.25728e+01             
       H -7.77128e+01 -1.74348e+01  6.32627e+01             
       H -7.79866e+01 -1.73960e+01  6.16907e+01             
       O -8.21928e+01 -1.93825e+01  7.48680e+01             
       H -8.22288e+01 -1.86819e+01  7.41368e+01             
       H -8.12093e+01 -1.95540e+01  7.49083e+01             
