192                                                         
# CELL(abcABC):   12.41850    12.41850    12.41850    90.00000    90.00000    90.00000  Step:           0  Bead:       0 x_centroid{angstrom}  cell{angstrom}   
       O -7.24678e+01 -8.57313e+00  6.13870e+01             
       H -7.22645e+01 -8.59161e+00  6.03989e+01             
       H -7.17518e+01 -8.13514e+00  6.18797e+01             
       O -6.24514e+01 -6.44445e+00  6.15035e+01             
       H -5.94774e+01 -1.68057e+01  5.37760e+01             
       H -6.19680e+01 -6.30077e+00  6.06502e+01             
       O -6.61899e+01 -2.38700e+01  4.57723e+01             
       H -6.52661e+01 -1.18894e+01  4.54797e+01             
       H -6.60931e+01 -2.29483e+01  4.58809e+01             
       O -6.20166e+01 -2.35006e+01  5.11566e+01             
       H -6.13947e+01 -2.35567e+01  5.04072e+01             
       H -6.14611e+01 -2.37319e+01  5.19343e+01             
       O -4.92716e+01 -2.00742e+01  5.33521e+01             
       H -4.87779e+01 -2.01410e+01  5.41847e+01             
       H -4.86316e+01 -1.98537e+01  5.26298e+01             
       O -5.22954e+01 -1.71814e+01  6.43176e+01             
       H -5.13742e+01 -1.70668e+01  6.41275e+01             
       H -5.24083e+01 -1.74677e+01  6.51993e+01             
       O -6.62071e+01 -1.97093e+01  4.15780e+01             
       H -6.52958e+01 -1.92837e+01  4.17540e+01             
       H -5.31109e+01  2.19353e+00  5.28120e+01             
       O -5.00802e+01 -1.59872e+01  6.75032e+01             
       H -5.04028e+01 -1.50677e+01  6.74676e+01             
       H -4.93466e+01 -2.84439e+01  6.69224e+01             
       O -7.04505e+01 -9.69354e+00  4.33442e+01             
       H -6.95963e+01 -9.30143e+00  4.36453e+01             
       H -7.03150e+01 -9.95907e+00  4.24210e+01             
       O -6.57579e+01 -2.46196e+01  4.98414e+01             
       H -6.51195e+01 -2.53770e+01  5.00573e+01             
       H -6.52724e+01 -2.38338e+01  4.98496e+01             
       O -7.11129e+01 -6.67096e+00  5.80716e+01             
       H -7.05234e+01 -6.71242e+00  5.88153e+01             
       H -7.06753e+01 -5.99345e+00  5.74903e+01             
       O -6.49701e+01 -8.65921e+00  4.65105e+01             
       H -6.40985e+01 -8.53288e+00  4.60836e+01             
       H -5.15884e+01 -1.29045e+01  4.15370e+01             
       O -6.05313e+01 -3.00362e+01  4.72815e+01             
       H -6.00911e+01 -3.05365e+01  4.65859e+01             
       H -5.89607e+01 -2.65320e+01  5.60719e+01             
       O -7.10642e+01 -1.63790e+01  4.86734e+01             
       H -7.10047e+01 -1.54103e+01  4.86216e+01             
       H -7.07982e+01 -1.65893e+01  4.95797e+01             
       O -5.00503e+01 -2.50838e+01  5.47819e+01             
       H -5.01688e+01 -2.41658e+01  5.51226e+01             
       H -4.92391e+01 -2.50753e+01  5.42549e+01             
       O -6.40103e+01 -9.52789e+00  6.17933e+01             
       H -6.35322e+01 -9.13564e+00  6.25626e+01             
       H -6.34064e+01 -1.00706e+01  6.12927e+01             
       O -6.59989e+01 -9.74999e+00  4.32907e+01             
       H -6.50722e+01 -2.23639e+01  4.32146e+01             
       H -6.65707e+01 -1.02819e+01  4.27249e+01             
       O -6.39132e+01 -2.60746e+01  3.82409e+01             
       H -6.31556e+01 -2.54893e+01  3.85590e+01             
       H -6.35014e+01 -2.69655e+01  3.81971e+01             
       O -7.22514e+01 -1.14693e+01  4.92041e+01             
       H -7.18560e+01 -1.06058e+01  4.90252e+01             
       H -7.15920e+01 -1.21785e+01  4.90630e+01             
       O -6.71772e+01  6.50834e+00  4.36671e+01             
       H -4.42597e+01 -1.75290e+01  4.75298e+01             
       H -6.66487e+01  5.94751e+00  4.30793e+01             
       O -5.91424e+01 -1.42973e+01  5.83231e+01             
       H -5.94475e+01 -2.11733e+01  5.55181e+01             
       H -7.06911e+01 -1.46651e+01  5.86832e+01             
       O -6.04206e+01 -3.10572e+01  5.12320e+01             
       H -6.07063e+01 -3.01473e+01  5.13324e+01             
       H -5.94863e+01 -3.09927e+01  5.09937e+01             
       O -6.96638e+01 -1.71476e+01  5.64369e+01             
       H -6.87218e+01 -1.73522e+01  5.63359e+01             
       H -6.97403e+01 -1.61883e+01  5.66808e+01             
       O -5.75015e+01 -4.12937e+01  5.13744e+01             
       H -5.65812e+01 -4.09653e+01  5.11943e+01             
       H -5.73839e+01 -4.22026e+01  6.41459e+01             
       O -6.34499e+01 -2.22602e+00  4.71100e+01             
       H -6.33209e+01 -2.77730e+00  4.63484e+01             
       H -6.25852e+01 -2.06185e+00  4.75153e+01             
       O -5.88705e+01 -2.38516e+01  5.80879e+01             
       H -5.84846e+01 -2.32894e+01  5.87407e+01             
       H -5.85861e+01 -2.34674e+01  5.72695e+01             
       O -6.36965e+01 -2.19054e+01  6.50434e+01             
       H -6.32148e+01 -2.11064e+01  6.49045e+01             
       H -6.31747e+01 -2.25444e+01  6.45387e+01             
       O -7.93315e+01 -1.99630e+01  4.82427e+01             
       H -7.86945e+01 -2.01705e+01  4.75490e+01             
       H -7.87664e+01 -1.97475e+01  4.90026e+01             
       O -5.57909e+01 -9.82044e-01  6.32366e+01             
       H -5.50947e+01 -4.03360e-01  6.29055e+01             
       H -5.52463e+01 -1.76675e+00  6.34915e+01             
       O -6.02746e+01 -1.23813e+01  4.05634e+01             
       H -5.99613e+01 -1.31036e+01  3.99666e+01             
       H -5.95716e+01 -1.17073e+01  2.82307e+01             
       O -5.64628e+01 -1.27147e+01  2.90587e+01             
       H -5.60305e+01 -1.29265e+01  2.82408e+01             
       H -6.82142e+01 -1.25231e+01  2.97474e+01             
       O -5.00172e+01 -1.58446e+01  2.56928e+01             
       H -4.97148e+01 -1.66140e+01  2.52348e+01             
       H -4.92340e+01 -1.52497e+01  2.58297e+01             
       O -5.78513e+01 -2.18339e+01  3.45388e+01             
       H -5.73001e+01 -2.15672e+01  3.37902e+01             
       H -5.72478e+01 -2.19219e+01  4.77140e+01             
       O -5.77116e+01 -1.36643e+01  3.66622e+01             
       H -6.29442e+01 -9.33814e+00  4.35409e+01             
       H -5.70779e+01 -1.36993e+01  3.74368e+01             
       O -5.78451e+01 -2.30537e+01  5.30912e+01             
       H -5.74586e+01 -2.38828e+01  5.34245e+01             
       H -5.71903e+01 -2.26170e+01  5.24620e+01             
       O -4.75613e+01 -1.48186e+01  3.90585e+01             
       H -4.76698e+01 -1.53942e+01  3.98460e+01             
       H -4.67999e+01 -1.52693e+01  3.86814e+01             
       O -5.32082e+01 -2.85711e+01  4.86071e+01             
       H -5.30485e+01 -2.94619e+01  4.89410e+01             
       H -5.23319e+01 -2.81802e+01  4.83886e+01             
       O -6.10575e+01 -1.81013e+00  6.03937e+01             
       H -6.04676e+01 -1.92633e+00  5.96579e+01             
       H -6.05348e+01 -2.25780e+00  6.10872e+01             
       O -5.28530e+01  6.99696e+00  7.08176e+01             
       H -5.20581e+01  7.57817e+00  7.07480e+01             
       H -5.26218e+01  6.13623e+00  7.11606e+01             
       O -5.88442e+01 -2.66197e+01  5.51038e+01             
       H -6.60950e+01 -2.06431e+01  4.17723e+01             
       H -5.79823e+01 -2.61461e+01  5.49759e+01             
       O -6.01328e+01 -1.61041e+01  5.38002e+01             
       H -5.70814e+01 -1.32273e+01  3.60394e+01             
       H -5.96843e+01 -1.54195e+01  5.43786e+01             
       O -5.24583e+01 -1.32667e+01  4.12161e+01             
       H -6.66206e+01 -5.70089e+00  4.44773e+01             
       H -5.22625e+01 -1.37149e+01  4.03576e+01             
       O -5.42311e+01 -2.79442e+01  5.10506e+01             
       H -6.58726e+01 -2.83289e+01  6.39109e+01             
       H -4.93507e+01 -6.88475e+00  6.19979e+01             
       O -8.87939e+01 -1.27498e+01  5.75489e+01             
       H -8.80297e+01 -1.22359e+01  5.72769e+01             
       H -8.85887e+01 -1.32811e+01  5.83099e+01             
       O -5.68111e+01 -3.08863e+01  4.77555e+01             
       H -5.59728e+01 -3.13759e+01  4.78107e+01             
       H -5.89526e+01 -1.33514e+01  5.82298e+01             
       O -6.34425e+01 -9.95725e+00  4.29515e+01             
       H -6.33997e+01 -9.53676e+00  4.20871e+01             
       H -7.54091e+01 -1.87283e+01  2.91365e+01             
       O -7.41098e+01 -2.35230e+01  4.54922e+01             
       H -7.42603e+01 -2.35219e+01  4.64622e+01             
       H -7.31462e+01 -2.37059e+01  4.54916e+01             
       O -5.60273e+01 -2.19084e+01  3.91430e+01             
       H -5.61211e+01 -2.19637e+01  3.82111e+01             
       H -5.52406e+01 -2.23749e+01  3.92421e+01             
       O -4.29732e+01 -2.48015e+01  4.78036e+01             
       H -4.21541e+01 -1.24554e+01  4.83161e+01             
       H -4.26095e+01 -2.44074e+01  4.69436e+01             
       O -5.65411e+01 -7.04522e+00  5.27056e+01             
       H -4.40870e+01 -7.95270e+00  5.23497e+01             
       H -5.56746e+01 -6.85166e+00  5.29590e+01             
       O -5.38774e+01  1.65898e+00  5.29914e+01             
       H -5.97715e+01 -2.96948e+01  4.77883e+01             
       H -6.46326e+01  3.59465e+00  4.73620e+01             
       O -6.77585e+01 -1.57539e+01  4.71604e+01             
       H -6.68298e+01 -1.59077e+01  4.75712e+01             
       H -6.80191e+01 -1.48237e+01  4.74488e+01             
       O -6.24793e+01 -4.29153e+00  3.29616e+01             
       H -6.17215e+01 -1.66831e+01  3.35294e+01             
       H -6.22080e+01 -4.02080e+00  3.20365e+01             
       O -7.09882e+01 -1.83636e+01  5.45136e+01             
       H -7.04080e+01 -1.78055e+01  5.50630e+01             
       H -7.03994e+01 -1.88889e+01  5.39639e+01             
       O -6.22228e+01 -2.08179e+01  5.74306e+01             
       H -6.15487e+01 -2.03311e+01  5.69765e+01             
       H -6.18397e+01 -2.17574e+01  5.75060e+01             
       O -7.24865e+01 -2.03733e+01  4.31087e+01             
       H -7.19648e+01 -1.95574e+01  5.53147e+01             
       H -6.62866e+01 -4.03078e+01  3.77642e+01             
       O -5.28358e+01 -1.86961e+01  6.20037e+01             
       H -5.19400e+01 -1.88931e+01  6.15839e+01             
       H -5.26626e+01 -1.85613e+01  6.29642e+01             
       O -5.79188e+01 -1.94051e+01  5.00828e+01             
       H -5.71199e+01 -1.94532e+01  5.07177e+01             
       H -5.76351e+01 -1.90583e+01  4.92625e+01             
       O -8.05303e+01 -2.08111e+01  5.70109e+01             
       H -8.06355e+01 -1.98725e+01  5.67536e+01             
       H -7.96466e+01 -2.11754e+01  5.66737e+01             
       O -5.59662e+01 -2.23488e+01  4.89529e+01             
       H -5.53411e+01 -2.16475e+01  4.87377e+01             
       H -5.56393e+01 -2.31679e+01  4.85725e+01             
       O -7.45515e+01 -1.13354e+01  2.33072e+01             
       H -7.48215e+01 -1.21723e+01  2.30505e+01             
       H -7.37030e+01 -1.15144e+01  2.38179e+01             
       O -6.38470e+01 -1.83353e+01  2.93506e+01             
       H -4.10770e+01 -1.16506e+01  4.06220e+01             
       H -6.36455e+01 -1.74648e+01  2.97939e+01             
       O -6.70577e+01 -1.26391e+01  5.58248e+01             
       H -6.67959e+01 -1.21596e+01  5.66750e+01             
       H -6.61973e+01 -1.29023e+01  5.55124e+01             
       O -6.88149e+01 -1.47524e+01  6.98219e+01             
       H -6.84488e+01 -1.41344e+01  6.91710e+01             
       H -6.80810e+01 -1.48513e+01  7.04336e+01             
192                                                         
# CELL(abcABC):   12.41850    12.41850    12.41850    90.00000    90.00000    90.00000  Step:      200000  Bead:       0 x_centroid{angstrom}  cell{angstrom}   
       O -9.03732e+01 -1.22850e+01  6.33679e+01             
       H -8.97526e+01 -1.15268e+01  6.35259e+01             
       H -8.97193e+01 -1.29829e+01  6.30081e+01             
       O -7.54548e+01 -1.20600e+01  6.66549e+01             
       H -7.42765e+01 -2.17187e+01  6.59748e+01             
       H -7.49094e+01 -1.21290e+01  6.58335e+01             
       O -8.22755e+01 -3.14561e+01  5.27579e+01             
       H -8.16826e+01 -1.95046e+01  5.20698e+01             
       H -8.15662e+01 -3.10235e+01  5.32666e+01             
       O -7.38176e+01 -2.74810e+01  5.93705e+01             
       H -7.36504e+01 -2.82780e+01  5.88648e+01             
       H -7.29729e+01 -2.71089e+01  5.96014e+01             
       O -6.23341e+01 -2.22009e+01  6.11839e+01             
       H -6.13499e+01 -2.23294e+01  6.12614e+01             
       H -6.25728e+01 -2.25917e+01  6.03466e+01             
       O -6.68865e+01 -2.11997e+01  7.08230e+01             
       H -6.59585e+01 -2.11688e+01  7.05131e+01             
       H -6.66357e+01 -2.07109e+01  7.16163e+01             
       O -7.98212e+01 -2.49547e+01  5.27696e+01             
       H -7.95075e+01 -2.42861e+01  5.33157e+01             
       H -6.73018e+01 -1.34181e+00  6.07428e+01             
       O -6.53395e+01 -1.82739e+01  7.60206e+01             
       H -6.44411e+01 -1.83553e+01  7.56695e+01             
       H -6.52722e+01 -2.99331e+01  7.66172e+01             
       O -8.46439e+01 -1.03430e+01  4.96794e+01             
       H -8.39956e+01 -9.67162e+00  4.94149e+01             
       H -8.41055e+01 -1.11168e+01  4.95363e+01             
       O -7.77652e+01 -2.61853e+01  5.66630e+01             
       H -7.76222e+01 -2.65441e+01  5.57264e+01             
       H -7.69013e+01 -2.60554e+01  5.70731e+01             
       O -8.22543e+01 -1.18080e+01  6.37537e+01             
       H -8.13679e+01 -1.19976e+01  6.40242e+01             
       H -8.23566e+01 -1.08565e+01  6.38867e+01             
       O -7.64187e+01 -1.44858e+01  5.05079e+01             
       H -7.62577e+01 -1.51438e+01  4.97823e+01             
       H -6.58417e+01 -1.62640e+01  4.60432e+01             
       O -7.35280e+01 -3.57630e+01  5.24622e+01             
       H -7.27920e+01 -3.57953e+01  5.30703e+01             
       H -7.28638e+01 -3.00420e+01  6.28088e+01             
       O -8.52965e+01 -1.76279e+01  5.81877e+01             
       H -8.51078e+01 -1.72547e+01  5.72234e+01             
       H -8.44279e+01 -1.78636e+01  5.84891e+01             
       O -6.30056e+01 -1.93850e+01  6.16695e+01             
       H -6.22135e+01 -1.89284e+01  6.20227e+01             
       H -6.26761e+01 -2.02814e+01  6.15565e+01             
       O -7.54639e+01 -1.31681e+01  7.06389e+01             
       H -7.48784e+01 -1.38828e+01  7.10447e+01             
       H -7.48838e+01 -1.28229e+01  6.98928e+01             
       O -8.02786e+01 -1.55764e+01  5.07448e+01             
       H -7.96600e+01 -2.78280e+01  5.15204e+01             
       H -7.99664e+01 -1.50374e+01  5.00044e+01             
       O -7.69823e+01 -2.96320e+01  4.64058e+01             
       H -7.63467e+01 -2.94542e+01  4.72553e+01             
       H -7.63929e+01 -2.98705e+01  4.56608e+01             
       O -8.90467e+01 -1.43178e+01  5.41909e+01             
       H -8.87365e+01 -1.34246e+01  5.40272e+01             
       H -8.82797e+01 -1.48933e+01  5.43181e+01             
       O -8.12533e+01  1.99446e+00  5.56762e+01             
       H -5.77372e+01 -2.04616e+01  5.69054e+01             
       H -8.08080e+01  1.38036e+00  5.62969e+01             
       O -7.02736e+01 -1.56731e+01  6.31728e+01             
       H -7.06054e+01 -2.33474e+01  6.64455e+01             
       H -8.27220e+01 -1.59201e+01  6.22278e+01             
       O -7.43395e+01 -3.24725e+01  5.83653e+01             
       H -7.38154e+01 -3.16184e+01  5.84455e+01             
       H -7.36698e+01 -3.31453e+01  5.82201e+01             
       O -8.07325e+01 -2.00531e+01  6.31392e+01             
       H -7.99521e+01 -2.05439e+01  6.35131e+01             
       H -8.03540e+01 -1.93555e+01  6.25458e+01             
       O -7.30831e+01 -4.70573e+01  5.74696e+01             
       H -7.27833e+01 -4.77021e+01  5.81688e+01             
       H -7.22650e+01 -4.68476e+01  6.93993e+01             
       O -7.74711e+01 -6.34966e+00  5.42337e+01             
       H -7.69331e+01 -5.94991e+00  5.49245e+01             
       H -7.70707e+01 -7.20919e+00  5.40589e+01             
       O -7.18983e+01 -2.59554e+01  6.32930e+01             
       H -7.12737e+01 -2.67460e+01  6.33842e+01             
       H -7.12644e+01 -2.52838e+01  6.36185e+01             
       O -7.72839e+01 -2.38451e+01  7.17683e+01             
       H -7.70623e+01 -2.28762e+01  7.17810e+01             
       H -7.65555e+01 -2.43811e+01  7.14331e+01             
       O -9.26544e+01 -2.71751e+01  5.44830e+01             
       H -9.22367e+01 -2.78704e+01  5.39869e+01             
       H -9.28352e+01 -2.65136e+01  5.37967e+01             
       O -6.90680e+01 -4.46909e+00  7.04120e+01             
       H -6.81557e+01 -4.02809e+00  7.04472e+01             
       H -6.89096e+01 -5.35698e+00  7.01227e+01             
       O -7.16801e+01 -1.37709e+01  4.77322e+01             
       H -7.08928e+01 -1.44534e+01  4.76066e+01             
       H -7.17739e+01 -1.36154e+01  3.62538e+01             
       O -7.11822e+01 -1.86731e+01  3.54924e+01             
       H -7.05487e+01 -1.80317e+01  3.57802e+01             
       H -8.32661e+01 -1.95426e+01  3.58674e+01             
       O -6.43154e+01 -2.11933e+01  3.30836e+01             
       H -6.40861e+01 -2.17575e+01  3.23380e+01             
       H -6.34717e+01 -2.06932e+01  3.33127e+01             
       O -7.43169e+01 -2.63622e+01  3.96739e+01             
       H -7.34205e+01 -2.62813e+01  3.92306e+01             
       H -7.41566e+01 -2.68018e+01  5.29877e+01             
       O -7.02409e+01 -1.55505e+01  4.33701e+01             
       H -7.55879e+01 -9.95015e+00  5.16598e+01             
       H -6.98104e+01 -1.61418e+01  4.40833e+01             
       O -6.99213e+01 -2.80718e+01  6.03210e+01             
       H -6.96837e+01 -2.86915e+01  5.95755e+01             
       H -6.90187e+01 -2.77158e+01  6.05180e+01             
       O -6.31954e+01 -1.64767e+01  4.83312e+01             
       H -6.27787e+01 -1.56272e+01  4.80173e+01             
       H -6.25171e+01 -1.69885e+01  4.88255e+01             
       O -7.17651e+01 -3.23838e+01  5.43628e+01             
       H -7.13275e+01 -3.28118e+01  5.51497e+01             
       H -7.10621e+01 -3.21621e+01  5.37159e+01             
       O -7.22597e+01 -4.79579e+00  6.79775e+01             
       H -7.14337e+01 -4.23955e+00  6.79542e+01             
       H -7.20593e+01 -5.62537e+00  6.75900e+01             
       O -6.67056e+01  2.45317e+00  7.87628e+01             
       H -6.64949e+01  2.81177e+00  7.78474e+01             
       H -6.58263e+01  2.60432e+00  7.93025e+01             
       O -7.33646e+01 -3.00914e+01  6.19236e+01             
       H -7.90565e+01 -2.51236e+01  5.21983e+01             
       H -7.26908e+01 -3.04542e+01  6.13132e+01             
       O -7.45657e+01 -2.08493e+01  6.61314e+01             
       H -6.94552e+01 -1.53221e+01  4.27843e+01             
       H -7.37991e+01 -2.05984e+01  6.66538e+01             
       O -6.66527e+01 -1.57385e+01  4.57390e+01             
       H -8.05182e+01 -1.02653e+01  5.50077e+01             
       H -6.63042e+01 -1.52275e+01  4.49209e+01             
       O -6.88135e+01 -3.17494e+01  5.73196e+01             
       H -8.04128e+01 -3.22207e+01  7.00696e+01             
       H -6.24333e+01 -1.22654e+01  6.73981e+01             
       O -9.94074e+01 -1.82020e+01  6.45569e+01             
       H -9.84284e+01 -1.79946e+01  6.44999e+01             
       H -9.94626e+01 -1.90474e+01  6.49528e+01             
       O -7.07146e+01 -3.35136e+01  5.64299e+01             
       H -6.99612e+01 -3.41376e+01  5.62199e+01             
       H -6.92976e+01 -1.57035e+01  6.33509e+01             
       O -7.62748e+01 -9.97150e+00  5.08957e+01             
       H -7.56711e+01 -1.00792e+01  5.00952e+01             
       H -9.10637e+01 -2.44486e+01  3.54050e+01             
       O -8.69334e+01 -2.84181e+01  5.42630e+01             
       H -8.68964e+01 -2.89015e+01  5.33876e+01             
       H -8.60695e+01 -2.86396e+01  5.47096e+01             
       O -7.14577e+01 -2.38276e+01  4.64281e+01             
       H -7.15426e+01 -2.45878e+01  4.70599e+01             
       H -7.05753e+01 -2.34151e+01  4.66516e+01             
       O -5.52350e+01 -3.16599e+01  5.50490e+01             
       H -5.43556e+01 -1.88738e+01  5.48666e+01             
       H -5.49244e+01 -3.25754e+01  5.50525e+01             
       O -6.90285e+01 -1.02418e+01  5.95624e+01             
       H -5.60377e+01 -9.73038e+00  5.89461e+01             
       H -6.84187e+01 -1.08806e+01  5.99866e+01             
       O -6.74916e+01 -2.34670e+00  6.07492e+01             
       H -7.30825e+01 -3.57132e+01  5.15942e+01             
       H -7.55802e+01 -1.92740e+00  5.10991e+01             
       O -8.43304e+01 -1.75544e+01  5.18291e+01             
       H -8.38373e+01 -1.66950e+01  5.15648e+01             
       H -8.35686e+01 -1.81007e+01  5.21549e+01             
       O -7.83649e+01 -8.39472e+00  3.92666e+01             
       H -7.75558e+01 -2.13229e+01  3.89336e+01             
       H -7.81656e+01 -7.44863e+00  3.92752e+01             
       O -8.25600e+01 -2.09615e+01  6.15215e+01             
       H -8.18396e+01 -2.07054e+01  6.21497e+01             
       H -8.21694e+01 -2.15529e+01  6.08284e+01             
       O -7.81801e+01 -2.77955e+01  6.47732e+01             
       H -7.77294e+01 -2.73245e+01  6.54878e+01             
       H -7.75805e+01 -2.76224e+01  6.40056e+01             
       O -8.38646e+01 -2.37605e+01  5.41407e+01             
       H -8.37616e+01 -2.44647e+01  6.72552e+01             
       H -8.10566e+01 -4.40716e+01  4.39238e+01             
       O -6.42838e+01 -2.21477e+01  6.74865e+01             
       H -6.40048e+01 -2.30063e+01  6.72151e+01             
       H -6.36542e+01 -2.15560e+01  6.69968e+01             
       O -7.37363e+01 -2.46317e+01  5.63716e+01             
       H -7.29240e+01 -2.51891e+01  5.64390e+01             
       H -7.34812e+01 -2.36858e+01  5.66047e+01             
       O -9.61621e+01 -2.55295e+01  6.90895e+01             
       H -9.56571e+01 -2.50870e+01  6.97110e+01             
       H -9.57764e+01 -2.63633e+01  6.88198e+01             
       O -6.72946e+01 -2.43563e+01  5.72972e+01             
       H -6.69927e+01 -2.52831e+01  5.71578e+01             
       H -6.64509e+01 -2.38906e+01  5.74207e+01             
       O -8.81044e+01 -1.80585e+01  3.16045e+01             
       H -8.75305e+01 -1.73131e+01  3.13299e+01             
       H -8.75181e+01 -1.87904e+01  3.18617e+01             
       O -7.94121e+01 -2.45323e+01  3.60051e+01             
       H -5.47501e+01 -1.50977e+01  4.74277e+01             
       H -7.90210e+01 -2.43220e+01  3.69277e+01             
       O -7.78325e+01 -1.93398e+01  6.01323e+01             
       H -7.70371e+01 -1.93305e+01  6.06920e+01             
       H -7.75762e+01 -1.86764e+01  5.94494e+01             
       O -7.99892e+01 -1.80947e+01  7.40091e+01             
       H -7.91798e+01 -1.82782e+01  7.34657e+01             
       H -7.98313e+01 -1.73788e+01  7.46873e+01             
