192                                                         
# CELL(abcABC):   12.41850    12.41850    12.41850    90.00000    90.00000    90.00000  Step:           0  Bead:       0 x_centroid{angstrom}  cell{angstrom}   
       O -7.19725e+01 -8.70643e+00  6.12635e+01             
       H -7.10520e+01 -8.84402e+00  6.10865e+01             
       H -7.19687e+01 -8.22598e+00  6.20904e+01             
       O -6.28765e+01 -7.16596e+00  6.10318e+01             
       H -6.13856e+01 -1.73281e+01  5.48519e+01             
       H -6.22968e+01 -7.53908e+00  6.03387e+01             
       O -6.65753e+01 -2.46216e+01  4.61864e+01             
       H -6.57421e+01 -1.25960e+01  4.60946e+01             
       H -6.63613e+01 -2.38216e+01  4.67397e+01             
       O -6.29786e+01 -2.41784e+01  5.19384e+01             
       H -6.24044e+01 -2.41131e+01  5.11380e+01             
       H -6.23722e+01 -2.44792e+01  5.26510e+01             
       O -5.04316e+01 -1.96290e+01  5.35708e+01             
       H -4.99459e+01 -2.00467e+01  5.43307e+01             
       H -4.98350e+01 -1.97130e+01  5.27736e+01             
       O -5.32707e+01 -1.75562e+01  6.35821e+01             
       H -5.23827e+01 -1.71425e+01  6.33715e+01             
       H -5.31388e+01 -1.78742e+01  6.45381e+01             
       O -6.71619e+01 -2.02718e+01  4.22035e+01             
       H -6.65584e+01 -1.95781e+01  4.19398e+01             
       H -5.36379e+01  2.36637e+00  5.21912e+01             
       O -5.18551e+01 -1.59998e+01  6.79612e+01             
       H -5.19764e+01 -1.50926e+01  6.77474e+01             
       H -5.10480e+01 -2.86686e+01  6.75492e+01             
       O -7.29298e+01 -1.02925e+01  4.38487e+01             
       H -7.20297e+01 -1.02151e+01  4.41440e+01             
       H -7.31001e+01 -1.07155e+01  4.29851e+01             
       O -6.54422e+01 -2.59364e+01  4.87415e+01             
       H -6.47451e+01 -2.65826e+01  4.84305e+01             
       H -6.51812e+01 -2.50538e+01  4.84096e+01             
       O -7.02329e+01 -7.43623e+00  5.88265e+01             
       H -7.01358e+01 -6.53023e+00  5.91755e+01             
       H -6.99488e+01 -7.98353e+00  5.95782e+01             
       O -6.71709e+01 -9.09108e+00  4.65705e+01             
       H -6.71620e+01 -9.62588e+00  4.57874e+01             
       H -5.22466e+01 -1.28192e+01  4.26334e+01             
       O -6.05431e+01 -2.93988e+01  4.56368e+01             
       H -5.96730e+01 -2.94564e+01  4.52156e+01             
       H -5.94177e+01 -2.65131e+01  5.63392e+01             
       O -7.20759e+01 -1.43866e+01  5.06474e+01             
       H -7.14469e+01 -1.36367e+01  5.02973e+01             
       H -7.13298e+01 -1.50083e+01  5.08565e+01             
       O -5.09902e+01 -2.42936e+01  5.58149e+01             
       H -5.10736e+01 -2.34286e+01  5.62366e+01             
       H -5.02362e+01 -2.42709e+01  5.52066e+01             
       O -6.44783e+01 -1.11024e+01  5.99120e+01             
       H -6.47062e+01 -1.03457e+01  6.04408e+01             
       H -6.34987e+01 -1.11476e+01  5.98377e+01             
       O -6.65771e+01 -9.86278e+00  4.39433e+01             
       H -6.57252e+01 -2.20916e+01  4.42829e+01             
       H -6.64398e+01 -1.06493e+01  4.34570e+01             
       O -6.53419e+01 -2.53498e+01  3.90626e+01             
       H -6.43578e+01 -2.50857e+01  3.91913e+01             
       H -6.54093e+01 -2.57566e+01  3.81805e+01             
       O -7.37285e+01 -1.07144e+01  4.98249e+01             
       H -7.27870e+01 -1.04417e+01  4.96693e+01             
       H -7.40889e+01 -1.09413e+01  4.89142e+01             
       O -6.88393e+01  5.65457e+00  4.40074e+01             
       H -4.47225e+01 -1.79201e+01  4.87916e+01             
       H -6.80344e+01  5.50320e+00  4.34946e+01             
       O -5.87158e+01 -1.38837e+01  5.85662e+01             
       H -6.08808e+01 -2.10250e+01  5.57738e+01             
       H -7.03696e+01 -1.45330e+01  5.84407e+01             
       O -6.15378e+01 -3.13723e+01  5.10755e+01             
       H -6.18997e+01 -3.05014e+01  5.12201e+01             
       H -6.05552e+01 -3.13604e+01  5.11263e+01             
       O -7.04388e+01 -1.72821e+01  5.70565e+01             
       H -6.99081e+01 -1.80540e+01  5.68360e+01             
       H -7.00337e+01 -1.64339e+01  5.67796e+01             
       O -5.79147e+01 -4.11806e+01  5.15594e+01             
       H -5.70755e+01 -4.13303e+01  5.11010e+01             
       H -5.83676e+01 -4.20528e+01  6.41520e+01             
       O -6.32422e+01 -3.09395e+00  4.77905e+01             
       H -6.29937e+01 -3.62985e+00  4.70840e+01             
       H -6.23267e+01 -2.77897e+00  4.80608e+01             
       O -5.78352e+01 -2.37753e+01  5.90491e+01             
       H -5.75624e+01 -2.32723e+01  5.97814e+01             
       H -5.76508e+01 -2.32111e+01  5.82892e+01             
       O -6.43073e+01 -2.18102e+01  6.47089e+01             
       H -6.41207e+01 -2.11229e+01  6.53669e+01             
       H -6.37433e+01 -2.25764e+01  6.48241e+01             
       O -7.94322e+01 -1.95056e+01  4.97830e+01             
       H -7.87401e+01 -2.00959e+01  4.94120e+01             
       H -7.88356e+01 -1.88426e+01  5.02076e+01             
       O -5.60957e+01 -1.37628e+00  6.44382e+01             
       H -5.52482e+01 -9.53164e-01  6.46227e+01             
       H -5.57809e+01 -2.23736e+00  6.40795e+01             
       O -6.13335e+01 -1.24419e+01  4.17770e+01             
       H -6.12187e+01 -1.33816e+01  4.20779e+01             
       H -6.04476e+01 -1.22306e+01  2.89762e+01             
       O -5.74257e+01 -1.51281e+01  2.92273e+01             
       H -5.76805e+01 -1.58425e+01  2.85851e+01             
       H -6.92815e+01 -1.45265e+01  2.86794e+01             
       O -5.09970e+01 -1.64233e+01  2.56641e+01             
       H -5.09680e+01 -1.61286e+01  2.46919e+01             
       H -5.05429e+01 -1.57312e+01  2.61855e+01             
       O -5.67803e+01 -2.19034e+01  3.58097e+01             
       H -5.59994e+01 -2.15705e+01  3.53365e+01             
       H -5.65713e+01 -2.16362e+01  4.91977e+01             
       O -5.75713e+01 -1.28620e+01  3.73176e+01             
       H -6.37092e+01 -9.03925e+00  4.55691e+01             
       H -5.69673e+01 -1.30799e+01  3.80541e+01             
       O -5.89087e+01 -2.44152e+01  5.33450e+01             
       H -5.86951e+01 -2.51450e+01  5.27601e+01             
       H -5.80722e+01 -2.40301e+01  5.36130e+01             
       O -4.94266e+01 -1.48822e+01  3.98909e+01             
       H -4.92374e+01 -1.54520e+01  4.06703e+01             
       H -4.86158e+01 -1.47384e+01  3.94364e+01             
       O -5.37936e+01 -2.92368e+01  4.80763e+01             
       H -5.28725e+01 -2.91136e+01  4.81379e+01             
       H -5.40431e+01 -2.85241e+01  4.74678e+01             
       O -6.07453e+01 -2.62317e+00  6.05265e+01             
       H -6.00473e+01 -2.25697e+00  6.00062e+01             
       H -6.04713e+01 -2.55273e+00  6.14645e+01             
       O -5.37193e+01  9.37422e+00  7.01880e+01             
       H -5.32715e+01  8.70573e+00  6.96356e+01             
       H -5.30540e+01  1.00474e+01  7.03039e+01             
       O -5.96941e+01 -2.68394e+01  5.54971e+01             
       H -6.67607e+01 -2.09121e+01  4.28006e+01             
       H -5.88038e+01 -2.68130e+01  5.49868e+01             
       O -6.14991e+01 -1.64073e+01  5.48102e+01             
       H -5.70398e+01 -1.32108e+01  3.65708e+01             
       H -6.06929e+01 -1.59555e+01  5.51207e+01             
       O -5.29318e+01 -1.33759e+01  4.23128e+01             
       H -6.86191e+01 -7.08016e+00  4.48732e+01             
       H -5.27726e+01 -1.32715e+01  4.13552e+01             
       O -5.53164e+01 -2.85082e+01  5.06453e+01             
       H -6.70289e+01 -2.90765e+01  6.34250e+01             
       H -4.99613e+01 -6.93334e+00  6.18097e+01             
       O -8.90773e+01 -1.34256e+01  5.79030e+01             
       H -8.86777e+01 -1.29108e+01  5.71896e+01             
       H -8.84016e+01 -1.35085e+01  5.85948e+01             
       O -5.71485e+01 -3.12703e+01  4.90630e+01             
       H -5.61956e+01 -3.15307e+01  4.93551e+01             
       H -5.82468e+01 -1.30741e+01  5.89202e+01             
       O -6.37674e+01 -9.10914e+00  4.46381e+01             
       H -6.32321e+01 -8.61300e+00  4.40203e+01             
       H -7.66320e+01 -1.86837e+01  2.88908e+01             
       O -7.37804e+01 -2.07179e+01  4.67159e+01             
       H -7.36092e+01 -2.00137e+01  4.60800e+01             
       H -7.29741e+01 -2.08217e+01  4.72612e+01             
       O -5.64283e+01 -2.35748e+01  4.17233e+01             
       H -5.56326e+01 -2.34472e+01  4.12040e+01             
       H -5.61576e+01 -2.38224e+01  4.26168e+01             
       O -4.32456e+01 -2.64324e+01  4.79359e+01             
       H -4.22589e+01 -1.38630e+01  4.81691e+01             
       H -4.33326e+01 -2.59901e+01  4.70991e+01             
       O -5.75088e+01 -7.95899e+00  5.35614e+01             
       H -4.53778e+01 -8.84137e+00  5.33528e+01             
       H -5.66005e+01 -7.99268e+00  5.39157e+01             
       O -5.43318e+01  1.68977e+00  5.22053e+01             
       H -6.05186e+01 -2.89739e+01  4.64917e+01             
       H -6.68015e+01  4.19986e+00  4.63980e+01             
       O -6.97458e+01 -1.64564e+01  4.76165e+01             
       H -6.89338e+01 -1.59544e+01  4.78505e+01             
       H -6.96310e+01 -1.68435e+01  4.67566e+01             
       O -6.58007e+01 -6.69392e+00  3.33877e+01             
       H -6.49226e+01 -1.88900e+01  3.31057e+01             
       H -6.60030e+01 -6.02614e+00  3.40284e+01             
       O -7.17309e+01 -1.86286e+01  5.48698e+01             
       H -7.13458e+01 -1.80887e+01  5.56234e+01             
       H -7.10666e+01 -1.93264e+01  5.46556e+01             
       O -6.32481e+01 -1.74895e+01  5.76737e+01             
       H -6.33356e+01 -1.67707e+01  5.70409e+01             
       H -6.23734e+01 -1.74588e+01  5.79959e+01             
       O -7.37569e+01 -2.02350e+01  4.31853e+01             
       H -7.30242e+01 -1.95595e+01  5.56311e+01             
       H -6.74038e+01 -4.08116e+01  3.72921e+01             
       O -5.25019e+01 -2.11347e+01  6.16511e+01             
       H -5.16466e+01 -2.06090e+01  6.14063e+01             
       H -5.24967e+01 -2.12381e+01  6.26139e+01             
       O -5.87197e+01 -1.93707e+01  5.10136e+01             
       H -5.82133e+01 -1.96862e+01  5.17693e+01             
       H -5.80602e+01 -1.91639e+01  5.02712e+01             
       O -8.24165e+01 -2.18737e+01  5.66153e+01             
       H -8.26492e+01 -2.09792e+01  5.69119e+01             
       H -8.18650e+01 -2.18289e+01  5.58331e+01             
       O -5.62844e+01 -2.15556e+01  5.09352e+01             
       H -5.55759e+01 -2.09048e+01  5.09194e+01             
       H -5.57641e+01 -2.23328e+01  5.12240e+01             
       O -7.40432e+01 -1.14006e+01  2.18222e+01             
       H -7.38496e+01 -1.06312e+01  2.12711e+01             
       H -7.31859e+01 -1.16580e+01  2.22128e+01             
       O -6.51605e+01 -1.82352e+01  2.87384e+01             
       H -4.15228e+01 -1.15439e+01  3.94425e+01             
       H -6.51132e+01 -1.74653e+01  2.93497e+01             
       O -6.76532e+01 -1.26181e+01  5.61652e+01             
       H -6.73527e+01 -1.23336e+01  5.70521e+01             
       H -6.68860e+01 -1.31500e+01  5.58614e+01             
       O -6.89218e+01 -1.48125e+01  6.97261e+01             
       H -6.86580e+01 -1.40900e+01  6.91693e+01             
       H -6.80960e+01 -1.52579e+01  7.00100e+01             
192                                                         
# CELL(abcABC):   12.41850    12.41850    12.41850    90.00000    90.00000    90.00000  Step:      200000  Bead:       0 x_centroid{angstrom}  cell{angstrom}   
       O -8.46132e+01 -1.40489e+01  6.81561e+01             
       H -8.41250e+01 -1.35337e+01  6.74755e+01             
       H -8.39011e+01 -1.41545e+01  6.88631e+01             
       O -7.42092e+01 -1.22308e+01  6.89095e+01             
       H -7.19575e+01 -1.99117e+01  5.98540e+01             
       H -7.34451e+01 -1.28452e+01  6.87347e+01             
       O -7.66585e+01 -2.88044e+01  5.25123e+01             
       H -7.58572e+01 -1.68316e+01  5.21016e+01             
       H -7.63465e+01 -2.78937e+01  5.28225e+01             
       O -7.58740e+01 -2.83312e+01  5.71356e+01             
       H -7.51979e+01 -2.77819e+01  5.75753e+01             
       H -7.55720e+01 -2.83801e+01  5.61701e+01             
       O -6.21973e+01 -2.18357e+01  5.89639e+01             
       H -6.15984e+01 -2.25687e+01  5.91273e+01             
       H -6.16833e+01 -2.13515e+01  5.82172e+01             
       O -6.61518e+01 -1.93357e+01  7.14334e+01             
       H -6.54745e+01 -1.86634e+01  7.13798e+01             
       H -6.59226e+01 -2.01247e+01  7.09547e+01             
       O -8.12664e+01 -2.15740e+01  5.04074e+01             
       H -8.06755e+01 -2.08411e+01  5.00589e+01             
       H -6.67652e+01 -2.31425e+00  5.82621e+01             
       O -6.44404e+01 -1.88408e+01  7.46209e+01             
       H -6.37802e+01 -1.82585e+01  7.50135e+01             
       H -6.38556e+01 -3.18139e+01  7.40899e+01             
       O -8.27529e+01 -1.29418e+01  4.93634e+01             
       H -8.24009e+01 -1.31850e+01  5.02171e+01             
       H -8.22472e+01 -1.21499e+01  4.90686e+01             
       O -7.81186e+01 -3.04879e+01  5.44512e+01             
       H -7.74556e+01 -3.11444e+01  5.47564e+01             
       H -7.74993e+01 -2.98451e+01  5.40579e+01             
       O -8.50663e+01 -1.15670e+01  6.16875e+01             
       H -8.46285e+01 -1.07312e+01  6.20126e+01             
       H -8.43321e+01 -1.22004e+01  6.19240e+01             
       O -8.00044e+01 -1.34172e+01  5.34903e+01             
       H -7.98029e+01 -1.24640e+01  5.32070e+01             
       H -6.45959e+01 -1.49917e+01  4.87870e+01             
       O -7.35393e+01 -3.55187e+01  5.42070e+01             
       H -7.27112e+01 -3.50020e+01  5.42724e+01             
       H -6.98388e+01 -3.02993e+01  6.25040e+01             
       O -8.21770e+01 -1.76660e+01  5.70001e+01             
       H -8.14388e+01 -1.70916e+01  5.65550e+01             
       H -8.17423e+01 -1.82166e+01  5.76562e+01             
       O -6.22366e+01 -2.70620e+01  6.11146e+01             
       H -6.15880e+01 -2.75248e+01  6.16620e+01             
       H -6.19668e+01 -2.69374e+01  6.01536e+01             
       O -7.57917e+01 -1.38998e+01  6.58769e+01             
       H -7.51934e+01 -1.33600e+01  6.52625e+01             
       H -7.51355e+01 -1.43894e+01  6.64186e+01             
       O -7.97479e+01 -1.08122e+01  5.21125e+01             
       H -7.90348e+01 -2.25387e+01  5.22103e+01             
       H -7.93891e+01 -1.14131e+01  5.13778e+01             
       O -7.83513e+01 -2.71743e+01  4.43205e+01             
       H -7.82541e+01 -2.62467e+01  4.39053e+01             
       H -7.74484e+01 -2.75513e+01  4.43096e+01             
       O -8.66213e+01 -1.57248e+01  5.48772e+01             
       H -8.57804e+01 -1.53418e+01  5.51810e+01             
       H -8.62931e+01 -1.66435e+01  5.45423e+01             
       O -8.39428e+01  3.22904e+00  5.02052e+01             
       H -5.57931e+01 -2.06782e+01  5.42767e+01             
       H -8.29651e+01  3.13844e+00  5.01709e+01             
       O -6.77477e+01 -1.64531e+01  6.80992e+01             
       H -7.63337e+01 -2.34840e+01  6.22001e+01             
       H -7.96077e+01 -1.71582e+01  6.77648e+01             
       O -7.35905e+01 -3.21236e+01  5.68718e+01             
       H -7.34911e+01 -3.18170e+01  5.77835e+01             
       H -7.26964e+01 -3.22432e+01  5.65249e+01             
       O -8.30643e+01 -2.25911e+01  6.60595e+01             
       H -8.22883e+01 -2.21522e+01  6.64161e+01             
       H -8.28581e+01 -2.23989e+01  6.51064e+01             
       O -7.10863e+01 -4.53831e+01  5.86163e+01             
       H -7.09926e+01 -4.63503e+01  5.84601e+01             
       H -7.01887e+01 -4.49540e+01  7.10935e+01             
       O -7.33566e+01 -7.73265e+00  5.20482e+01             
       H -7.26158e+01 -7.95121e+00  5.14175e+01             
       H -7.29628e+01 -7.25450e+00  5.28408e+01             
       O -6.83687e+01 -2.67615e+01  6.31286e+01             
       H -6.78165e+01 -2.74954e+01  6.34525e+01             
       H -6.77265e+01 -2.61891e+01  6.25970e+01             
       O -7.88986e+01 -2.49059e+01  7.46911e+01             
       H -7.88715e+01 -2.42203e+01  7.39484e+01             
       H -7.79799e+01 -2.50809e+01  7.49112e+01             
       O -9.14926e+01 -2.30165e+01  5.60800e+01             
       H -9.10962e+01 -2.36216e+01  5.54476e+01             
       H -9.08077e+01 -2.24709e+01  5.65881e+01             
       O -6.87538e+01 -6.71339e+00  7.15347e+01             
       H -6.77051e+01 -6.95568e+00  7.14514e+01             
       H -6.87609e+01 -5.92185e+00  7.20107e+01             
       O -7.83818e+01 -1.06563e+01  4.78994e+01             
       H -7.75916e+01 -1.02575e+01  4.83117e+01             
       H -7.80201e+01 -1.10880e+01  3.47055e+01             
       O -6.90292e+01 -1.78794e+01  3.91874e+01             
       H -6.82939e+01 -1.73419e+01  3.88909e+01             
       H -8.09529e+01 -1.85973e+01  3.96130e+01             
       O -6.42611e+01 -1.74936e+01  3.41791e+01             
       H -6.40526e+01 -1.69854e+01  3.33736e+01             
       H -6.34330e+01 -1.77753e+01  3.45035e+01             
       O -7.06014e+01 -2.54987e+01  4.14157e+01             
       H -6.96517e+01 -2.56412e+01  4.15181e+01             
       H -7.07447e+01 -2.45132e+01  5.37752e+01             
       O -7.16983e+01 -1.63126e+01  4.61424e+01             
       H -7.55542e+01 -1.33763e+01  4.96871e+01             
       H -7.09404e+01 -1.58408e+01  4.66773e+01             
       O -6.96458e+01 -2.66573e+01  5.65562e+01             
       H -6.91698e+01 -2.74578e+01  5.63011e+01             
       H -6.90245e+01 -2.60302e+01  5.67928e+01             
       O -6.16645e+01 -1.77756e+01  4.72264e+01             
       H -6.10990e+01 -1.83666e+01  4.77476e+01             
       H -6.10273e+01 -1.72807e+01  4.67311e+01             
       O -6.37505e+01 -3.23515e+01  5.56443e+01             
       H -6.28768e+01 -3.21644e+01  5.60311e+01             
       H -6.34357e+01 -3.27771e+01  5.47935e+01             
       O -7.28867e+01 -5.81071e+00  6.61875e+01             
       H -7.23569e+01 -5.23227e+00  6.55926e+01             
       H -7.22372e+01 -6.23860e+00  6.67941e+01             
       O -6.53992e+01  3.32996e+00  7.67255e+01             
       H -6.46401e+01  3.48216e+00  7.72984e+01             
       H -6.49233e+01  3.13071e+00  7.58712e+01             
       O -7.02685e+01 -3.01206e+01  6.16384e+01             
       H -8.07134e+01 -2.20605e+01  5.10377e+01             
       H -6.99339e+01 -2.92350e+01  6.13888e+01             
       O -7.21265e+01 -1.95068e+01  6.07131e+01             
       H -7.12463e+01 -1.68116e+01  4.54480e+01             
       H -7.14311e+01 -1.89007e+01  6.09470e+01             
       O -6.52158e+01 -1.56173e+01  4.84261e+01             
       H -8.41787e+01 -8.56277e+00  4.94935e+01             
       H -6.47112e+01 -1.64103e+01  4.79578e+01             
       O -6.49693e+01 -3.38524e+01  5.73863e+01             
       H -7.66919e+01 -3.41983e+01  7.03422e+01             
       H -6.17097e+01 -1.18937e+01  6.98363e+01             
       O -9.95298e+01 -1.78604e+01  6.36077e+01             
       H -9.87407e+01 -1.74128e+01  6.32563e+01             
       H -9.91865e+01 -1.87357e+01  6.38496e+01             
       O -6.87690e+01 -3.36635e+01  5.48332e+01             
       H -6.80115e+01 -3.42338e+01  5.52111e+01             
       H -6.70800e+01 -1.58560e+01  6.84821e+01             
       O -7.63226e+01 -1.29590e+01  5.01314e+01             
       H -7.60107e+01 -1.26714e+01  5.10264e+01             
       H -9.15194e+01 -2.02166e+01  3.60403e+01             
       O -8.65878e+01 -2.46879e+01  5.20896e+01             
       H -8.61218e+01 -2.41437e+01  5.27310e+01             
       H -8.61520e+01 -2.47138e+01  5.12276e+01             
       O -6.95367e+01 -2.77669e+01  4.78746e+01             
       H -6.87127e+01 -2.74283e+01  4.74327e+01             
       H -6.98550e+01 -2.69890e+01  4.83561e+01             
       O -5.65915e+01 -3.57850e+01  6.07372e+01             
       H -5.57017e+01 -2.35910e+01  6.04037e+01             
       H -5.63985e+01 -3.50697e+01  6.14288e+01             
       O -7.06360e+01 -1.07403e+01  5.85089e+01             
       H -5.75837e+01 -1.12225e+01  5.78577e+01             
       H -7.00015e+01 -1.07987e+01  5.92804e+01             
       O -6.72677e+01 -2.04574e+00  5.90889e+01             
       H -7.35961e+01 -3.60402e+01  5.50366e+01             
       H -8.01545e+01 -1.40298e+00  5.26098e+01             
       O -8.37166e+01 -1.58135e+01  5.26894e+01             
       H -8.35998e+01 -1.49056e+01  5.30796e+01             
       H -8.28274e+01 -1.61741e+01  5.27440e+01             
       O -7.53845e+01 -8.96863e+00  4.09787e+01             
       H -7.47943e+01 -2.07944e+01  4.04421e+01             
       H -7.47363e+01 -9.63839e+00  4.13629e+01             
       O -8.55709e+01 -2.41482e+01  5.89614e+01             
       H -8.56817e+01 -2.42244e+01  5.99520e+01             
       H -8.46282e+01 -2.37537e+01  5.88605e+01             
       O -7.47242e+01 -2.08095e+01  6.14203e+01             
       H -7.39833e+01 -2.03192e+01  6.17818e+01             
       H -7.46680e+01 -2.09787e+01  6.04232e+01             
       O -8.89003e+01 -2.25178e+01  4.97462e+01             
       H -8.79783e+01 -2.21567e+01  6.20047e+01             
       H -7.68727e+01 -4.57974e+01  4.42544e+01             
       O -6.42133e+01 -2.45542e+01  6.77738e+01             
       H -6.34322e+01 -2.45685e+01  6.83353e+01             
       H -6.39998e+01 -2.50708e+01  6.69824e+01             
       O -7.11290e+01 -1.94628e+01  5.56611e+01             
       H -7.06481e+01 -1.88838e+01  5.62327e+01             
       H -7.03996e+01 -2.00594e+01  5.53102e+01             
       O -9.31590e+01 -2.44236e+01  5.75891e+01             
       H -9.26168e+01 -2.50100e+01  5.81378e+01             
       H -9.25317e+01 -2.38111e+01  5.71064e+01             
       O -7.35576e+01 -2.69449e+01  5.83974e+01             
       H -7.27505e+01 -2.75551e+01  5.84020e+01             
       H -7.31845e+01 -2.60682e+01  5.84805e+01             
       O -8.51170e+01 -1.62791e+01  2.54217e+01             
       H -8.44427e+01 -1.60212e+01  2.60642e+01             
       H -8.45595e+01 -1.66254e+01  2.47368e+01             
       O -7.92285e+01 -2.02124e+01  3.69761e+01             
       H -5.42616e+01 -1.47780e+01  4.73603e+01             
       H -7.83852e+01 -1.96534e+01  3.72431e+01             
       O -7.88781e+01 -1.62901e+01  6.31712e+01             
       H -7.80747e+01 -1.62433e+01  6.37136e+01             
       H -7.85941e+01 -1.61293e+01  6.22398e+01             
       O -7.96166e+01 -1.95862e+01  7.77033e+01             
       H -7.90201e+01 -1.88675e+01  7.80798e+01             
       H -7.90491e+01 -2.02649e+01  7.72173e+01             
