192                                                         
# CELL(abcABC):   12.41850    12.41850    12.41850    90.00000    90.00000    90.00000  Step:           0  Bead:       0 x_centroid{angstrom}  cell{angstrom}   
       O -7.34714e+01 -8.45062e+00  6.22662e+01             
       H -7.28615e+01 -9.05374e+00  6.17342e+01             
       H -7.30037e+01 -7.68114e+00  6.25804e+01             
       O -6.46351e+01 -6.68374e+00  6.18831e+01             
       H -6.13414e+01 -1.70658e+01  5.57391e+01             
       H -6.41517e+01 -6.57218e+00  6.27156e+01             
       O -6.60568e+01 -2.63646e+01  4.68354e+01             
       H -6.57348e+01 -1.47956e+01  4.64129e+01             
       H -6.53000e+01 -2.58091e+01  4.71378e+01             
       O -6.43903e+01 -2.39977e+01  5.16552e+01             
       H -6.37883e+01 -2.32405e+01  5.15706e+01             
       H -6.37974e+01 -2.47368e+01  5.18677e+01             
       O -5.20755e+01 -2.18784e+01  5.38702e+01             
       H -5.18309e+01 -2.12249e+01  5.45440e+01             
       H -5.14580e+01 -2.16599e+01  5.31214e+01             
       O -5.45345e+01 -1.69943e+01  6.41934e+01             
       H -5.41053e+01 -1.61117e+01  6.40433e+01             
       H -5.39212e+01 -1.73921e+01  6.48541e+01             
       O -6.70337e+01 -2.01500e+01  4.18287e+01             
       H -6.63701e+01 -1.94094e+01  4.16190e+01             
       H -5.45407e+01  1.46601e+00  5.37179e+01             
       O -5.18920e+01 -1.63703e+01  6.80519e+01             
       H -5.20477e+01 -1.56140e+01  6.74713e+01             
       H -5.09424e+01 -2.88018e+01  6.82770e+01             
       O -7.42481e+01 -9.63828e+00  4.44712e+01             
       H -7.34785e+01 -9.29491e+00  4.49043e+01             
       H -7.40376e+01 -1.05291e+01  4.41913e+01             
       O -6.52605e+01 -2.72672e+01  5.11675e+01             
       H -6.44082e+01 -2.75749e+01  5.10669e+01             
       H -6.54186e+01 -2.65214e+01  5.05862e+01             
       O -7.06845e+01 -6.69700e+00  5.81239e+01             
       H -6.99612e+01 -6.56024e+00  5.74973e+01             
       H -7.03224e+01 -6.48319e+00  5.89891e+01             
       O -6.76269e+01 -1.13297e+01  4.77142e+01             
       H -6.71974e+01 -1.06194e+01  4.72656e+01             
       H -5.41412e+01 -1.37285e+01  4.41638e+01             
       O -6.12777e+01 -3.07543e+01  4.62244e+01             
       H -6.13557e+01 -3.03736e+01  4.53421e+01             
       H -5.94296e+01 -2.67468e+01  5.69817e+01             
       O -7.32633e+01 -1.32651e+01  5.02118e+01             
       H -7.28474e+01 -1.24252e+01  5.02335e+01             
       H -7.25251e+01 -1.39528e+01  5.03896e+01             
       O -5.31883e+01 -2.46119e+01  5.68575e+01             
       H -5.30225e+01 -2.49037e+01  5.77583e+01             
       H -5.24466e+01 -2.47778e+01  5.61938e+01             
       O -6.58176e+01 -1.24320e+01  6.20470e+01             
       H -6.54114e+01 -1.19216e+01  6.27929e+01             
       H -6.50401e+01 -1.24031e+01  6.14882e+01             
       O -6.72357e+01 -1.01586e+01  4.36162e+01             
       H -6.66563e+01 -2.32122e+01  4.40734e+01             
       H -6.68444e+01 -9.27326e+00  4.36082e+01             
       O -6.51100e+01 -2.67438e+01  4.15572e+01             
       H -6.47753e+01 -2.58507e+01  4.16101e+01             
       H -6.52229e+01 -2.68888e+01  4.05636e+01             
       O -7.49166e+01 -9.51537e+00  5.19102e+01             
       H -7.42482e+01 -9.95457e+00  5.24700e+01             
       H -7.44326e+01 -9.25460e+00  5.10953e+01             
       O -6.84622e+01  5.33670e+00  4.39020e+01             
       H -4.47889e+01 -1.75271e+01  4.78657e+01             
       H -6.80416e+01  5.04749e+00  4.30907e+01             
       O -5.89848e+01 -1.37924e+01  5.89384e+01             
       H -6.29730e+01 -2.09160e+01  5.60990e+01             
       H -7.08849e+01 -1.46024e+01  5.89603e+01             
       O -6.29040e+01 -3.11466e+01  5.14673e+01             
       H -6.28159e+01 -3.03886e+01  5.08833e+01             
       H -6.23354e+01 -3.19201e+01  5.13579e+01             
       O -7.13341e+01 -1.93406e+01  5.40551e+01             
       H -7.12257e+01 -2.02970e+01  5.41452e+01             
       H -7.06709e+01 -1.88703e+01  5.45349e+01             
       O -5.92320e+01 -4.04596e+01  5.09065e+01             
       H -5.93268e+01 -4.14015e+01  5.08322e+01             
       H -5.82663e+01 -4.02950e+01  6.32380e+01             
       O -6.27656e+01 -3.75875e+00  4.76359e+01             
       H -6.21494e+01 -4.38051e+00  4.72305e+01             
       H -6.22973e+01 -2.90816e+00  4.74744e+01             
       O -5.99322e+01 -2.26249e+01  6.09514e+01             
       H -5.90870e+01 -2.25797e+01  6.13838e+01             
       H -5.96346e+01 -2.23913e+01  6.00470e+01             
       O -6.40094e+01 -2.45133e+01  6.71900e+01             
       H -6.41552e+01 -2.36519e+01  6.67382e+01             
       H -6.30631e+01 -2.45926e+01  6.74759e+01             
       O -8.09122e+01 -1.91516e+01  5.07113e+01             
       H -8.02111e+01 -1.97288e+01  5.03577e+01             
       H -8.04356e+01 -1.84465e+01  5.11329e+01             
       O -5.69486e+01 -6.06496e-01  6.52785e+01             
       H -5.61256e+01 -1.16674e-01  6.52345e+01             
       H -5.68496e+01 -1.23720e+00  6.45028e+01             
       O -6.14928e+01 -1.22148e+01  4.29460e+01             
       H -6.08003e+01 -1.28687e+01  4.31023e+01             
       H -6.11213e+01 -1.16897e+01  2.97963e+01             
       O -6.01240e+01 -1.41697e+01  2.83447e+01             
       H -5.98519e+01 -1.47734e+01  2.76919e+01             
       H -7.18624e+01 -1.42271e+01  2.90030e+01             
       O -5.02949e+01 -1.62164e+01  2.53657e+01             
       H -5.04414e+01 -1.62562e+01  2.44061e+01             
       H -4.94041e+01 -1.58926e+01  2.55221e+01             
       O -5.72589e+01 -2.21596e+01  3.67852e+01             
       H -5.66044e+01 -2.26939e+01  3.63290e+01             
       H -5.69662e+01 -2.15682e+01  4.99066e+01             
       O -5.86918e+01 -1.17391e+01  3.86668e+01             
       H -6.35413e+01 -9.20543e+00  4.70789e+01             
       H -5.81420e+01 -1.22831e+01  3.92371e+01             
       O -6.06490e+01 -2.33615e+01  5.32739e+01             
       H -6.01723e+01 -2.41610e+01  5.29613e+01             
       H -5.99068e+01 -2.26955e+01  5.34749e+01             
       O -5.04582e+01 -1.37756e+01  3.95498e+01             
       H -4.98427e+01 -1.39744e+01  4.02375e+01             
       H -4.98473e+01 -1.37400e+01  3.87482e+01             
       O -5.41443e+01 -3.03755e+01  4.79580e+01             
       H -5.33331e+01 -3.05310e+01  4.84837e+01             
       H -5.38486e+01 -2.99276e+01  4.71328e+01             
       O -6.16729e+01 -1.12900e+00  5.99133e+01             
       H -6.08577e+01 -1.17453e+00  5.93395e+01             
       H -6.12477e+01 -9.55682e-01  6.07823e+01             
       O -5.61304e+01  8.12204e+00  6.91071e+01             
       H -5.59228e+01  7.23314e+00  6.87682e+01             
       H -5.52551e+01  8.58495e+00  6.90530e+01             
       O -5.98249e+01 -2.70471e+01  5.61807e+01             
       H -6.65278e+01 -2.09738e+01  4.16446e+01             
       H -5.90549e+01 -2.73035e+01  5.56470e+01             
       O -6.17856e+01 -1.66228e+01  5.64762e+01             
       H -5.81200e+01 -1.09820e+01  3.85283e+01             
       H -6.11579e+01 -1.58456e+01  5.66388e+01             
       O -5.46655e+01 -1.45553e+01  4.40323e+01             
       H -6.79369e+01 -7.44169e+00  4.46264e+01             
       H -5.42469e+01 -1.47955e+01  4.31563e+01             
       O -5.64430e+01 -2.75549e+01  5.11643e+01             
       H -6.85421e+01 -2.84110e+01  6.38902e+01             
       H -5.16143e+01 -7.16195e+00  6.13033e+01             
       O -8.98225e+01 -1.63709e+01  5.84156e+01             
       H -8.97007e+01 -1.64686e+01  5.74685e+01             
       H -8.89349e+01 -1.62761e+01  5.87396e+01             
       O -5.73960e+01 -3.07732e+01  4.83658e+01             
       H -5.66212e+01 -3.10364e+01  4.88958e+01             
       H -5.82808e+01 -1.31782e+01  5.86549e+01             
       O -6.40063e+01 -9.71524e+00  4.63936e+01             
       H -6.33935e+01 -9.80914e+00  4.56371e+01             
       H -7.68377e+01 -1.85302e+01  2.81796e+01             
       O -7.52054e+01 -2.04076e+01  4.78954e+01             
       H -7.47601e+01 -1.97864e+01  4.72887e+01             
       H -7.46359e+01 -2.06244e+01  4.86835e+01             
       O -5.72844e+01 -2.28380e+01  4.42280e+01             
       H -5.64483e+01 -2.23417e+01  4.41368e+01             
       H -5.70879e+01 -2.38019e+01  4.43324e+01             
       O -4.34157e+01 -2.68955e+01  4.84694e+01             
       H -4.35053e+01 -1.35731e+01  4.86780e+01             
       H -4.25002e+01 -2.69555e+01  4.81679e+01             
       O -5.84679e+01 -9.48805e+00  5.43516e+01             
       H -4.58117e+01 -9.88521e+00  5.51980e+01             
       H -5.76815e+01 -9.57826e+00  5.37503e+01             
       O -5.47742e+01  1.35920e+00  5.27982e+01             
       H -6.03737e+01 -3.11686e+01  4.62010e+01             
       H -6.69761e+01  7.30110e-01  4.83415e+01             
       O -6.96300e+01 -1.61085e+01  4.66836e+01             
       H -6.91081e+01 -1.54893e+01  4.72372e+01             
       H -6.90781e+01 -1.62835e+01  4.58945e+01             
       O -6.75197e+01 -8.07928e+00  3.48219e+01             
       H -6.82951e+01 -2.03642e+01  3.53641e+01             
       H -6.70222e+01 -7.18699e+00  3.47972e+01             
       O -7.37797e+01 -1.85501e+01  5.40495e+01             
       H -7.28247e+01 -1.86719e+01  5.42042e+01             
       H -7.37849e+01 -1.83128e+01  5.31341e+01             
       O -6.59041e+01 -2.05871e+01  5.76794e+01             
       H -6.52479e+01 -2.02494e+01  5.70388e+01             
       H -6.53669e+01 -2.12016e+01  5.82053e+01             
       O -7.58038e+01 -2.02155e+01  4.31320e+01             
       H -7.50811e+01 -1.99132e+01  5.49811e+01             
       H -6.85044e+01 -3.97896e+01  3.78861e+01             
       O -5.44115e+01 -2.12113e+01  6.24165e+01             
       H -5.35466e+01 -2.08763e+01  6.26289e+01             
       H -5.45198e+01 -2.11540e+01  6.14523e+01             
       O -5.91015e+01 -1.84938e+01  5.06189e+01             
       H -5.83772e+01 -1.86467e+01  5.12446e+01             
       H -5.86683e+01 -1.85016e+01  4.97492e+01             
       O -8.42632e+01 -2.15956e+01  5.81872e+01             
       H -8.37820e+01 -2.07285e+01  5.81706e+01             
       H -8.36586e+01 -2.22697e+01  5.77276e+01             
       O -5.67454e+01 -2.18184e+01  5.21626e+01             
       H -5.64762e+01 -2.09456e+01  5.19836e+01             
       H -5.58499e+01 -2.22426e+01  5.22677e+01             
       O -7.64185e+01 -1.22855e+01  2.28034e+01             
       H -7.65079e+01 -1.13684e+01  2.25484e+01             
       H -7.55575e+01 -1.25078e+01  2.24719e+01             
       O -6.51737e+01 -1.81313e+01  2.85844e+01             
       H -4.15903e+01 -1.14551e+01  3.98726e+01             
       H -6.48369e+01 -1.77206e+01  2.93918e+01             
       O -6.91446e+01 -1.30370e+01  5.76955e+01             
       H -6.84617e+01 -1.26453e+01  5.82221e+01             
       H -6.88452e+01 -1.36536e+01  5.70129e+01             
       O -7.00424e+01 -1.52504e+01  6.71427e+01             
       H -6.94638e+01 -1.45147e+01  6.68747e+01             
       H -6.95552e+01 -1.58334e+01  6.77565e+01             
192                                                         
# CELL(abcABC):   12.41850    12.41850    12.41850    90.00000    90.00000    90.00000  Step:      200000  Bead:       0 x_centroid{angstrom}  cell{angstrom}   
       O -8.58806e+01 -1.00251e+01  6.92537e+01             
       H -8.49839e+01 -1.03277e+01  6.94838e+01             
       H -8.63155e+01 -9.61176e+00  7.00301e+01             
       O -7.82594e+01 -1.21474e+01  6.83626e+01             
       H -7.33967e+01 -2.19005e+01  6.40950e+01             
       H -7.75563e+01 -1.22383e+01  6.91267e+01             
       O -7.75819e+01 -3.24249e+01  5.21205e+01             
       H -7.72518e+01 -1.98413e+01  5.30337e+01             
       H -7.66062e+01 -3.24499e+01  5.16506e+01             
       O -7.86598e+01 -2.84155e+01  5.94657e+01             
       H -7.85001e+01 -2.87915e+01  6.03094e+01             
       H -7.78821e+01 -2.87306e+01  5.89504e+01             
       O -6.50678e+01 -2.27981e+01  6.17435e+01             
       H -6.44949e+01 -2.27586e+01  6.25356e+01             
       H -6.43045e+01 -2.27114e+01  6.10273e+01             
       O -6.66009e+01 -2.19899e+01  7.13584e+01             
       H -6.61241e+01 -2.24582e+01  7.20731e+01             
       H -6.59636e+01 -2.14039e+01  7.09308e+01             
       O -8.17226e+01 -2.36423e+01  4.89317e+01             
       H -8.09217e+01 -2.41221e+01  4.87107e+01             
       H -6.87296e+01 -5.25784e+00  6.02786e+01             
       O -6.28146e+01 -1.97649e+01  7.59977e+01             
       H -6.25133e+01 -1.88302e+01  7.62573e+01             
       H -6.21555e+01 -3.27706e+01  7.64456e+01             
       O -8.59192e+01 -1.43609e+01  5.16692e+01             
       H -8.56330e+01 -1.43130e+01  5.25842e+01             
       H -8.51766e+01 -1.42610e+01  5.10818e+01             
       O -7.85377e+01 -3.18045e+01  5.69948e+01             
       H -7.81427e+01 -3.20002e+01  5.60960e+01             
       H -7.79112e+01 -3.14171e+01  5.76410e+01             
       O -8.35158e+01 -7.23984e+00  6.44721e+01             
       H -8.26929e+01 -7.11514e+00  6.39314e+01             
       H -8.31975e+01 -7.53984e+00  6.53601e+01             
       O -8.08090e+01 -1.41061e+01  5.33030e+01             
       H -8.01705e+01 -1.42743e+01  5.40848e+01             
       H -6.80523e+01 -1.85453e+01  5.02989e+01             
       O -7.45775e+01 -3.37496e+01  5.46501e+01             
       H -7.39230e+01 -3.36156e+01  5.38809e+01             
       H -7.16366e+01 -2.89669e+01  6.10222e+01             
       O -8.82177e+01 -1.75422e+01  5.58550e+01             
       H -8.82678e+01 -1.66104e+01  5.54106e+01             
       H -8.72426e+01 -1.77850e+01  5.57786e+01             
       O -6.53033e+01 -2.80088e+01  6.38924e+01             
       H -6.46680e+01 -2.79709e+01  6.46034e+01             
       H -6.47400e+01 -2.79405e+01  6.30069e+01             
       O -7.85662e+01 -1.48203e+01  6.75318e+01             
       H -7.83651e+01 -1.39646e+01  6.78841e+01             
       H -7.77511e+01 -1.50000e+01  6.69795e+01             
       O -8.24190e+01 -1.61911e+01  5.25683e+01             
       H -8.18011e+01 -2.78105e+01  5.27688e+01             
       H -8.17142e+01 -1.68338e+01  5.29064e+01             
       O -7.45762e+01 -2.99323e+01  4.83614e+01             
       H -7.45188e+01 -3.08853e+01  4.82560e+01             
       H -7.35696e+01 -2.96838e+01  4.83224e+01             
       O -8.38735e+01 -1.08265e+01  5.97233e+01             
       H -8.29072e+01 -1.08201e+01  6.00474e+01             
       H -8.36629e+01 -1.11459e+01  5.88070e+01             
       O -8.01782e+01  3.48009e+00  4.98072e+01             
       H -5.55567e+01 -1.75248e+01  5.45546e+01             
       H -7.92635e+01  3.18106e+00  4.95431e+01             
       O -7.44721e+01 -1.71618e+01  6.43124e+01             
       H -7.45538e+01 -2.55303e+01  6.34080e+01             
       H -8.59991e+01 -1.70871e+01  6.47346e+01             
       O -7.57229e+01 -3.81970e+01  6.04336e+01             
       H -7.58287e+01 -3.77896e+01  6.13014e+01             
       H -7.47463e+01 -3.81376e+01  6.02615e+01             
       O -8.12918e+01 -2.02887e+01  5.91212e+01             
       H -8.04509e+01 -2.07728e+01  5.90584e+01             
       H -8.12574e+01 -1.97392e+01  5.82877e+01             
       O -7.33042e+01 -4.31750e+01  5.55929e+01             
       H -7.29273e+01 -4.27850e+01  5.47890e+01             
       H -7.25656e+01 -4.34488e+01  6.86281e+01             
       O -7.66672e+01 -7.31753e+00  5.46599e+01             
       H -7.57512e+01 -7.85542e+00  5.46892e+01             
       H -7.64774e+01 -6.37322e+00  5.49032e+01             
       O -7.36543e+01 -2.61748e+01  7.02360e+01             
       H -7.33450e+01 -2.62834e+01  7.11430e+01             
       H -7.29788e+01 -2.65199e+01  6.96257e+01             
       O -7.64476e+01 -2.83295e+01  7.40192e+01             
       H -7.62215e+01 -2.73869e+01  7.37463e+01             
       H -7.57794e+01 -2.89175e+01  7.36187e+01             
       O -9.20881e+01 -2.53013e+01  6.09953e+01             
       H -9.17325e+01 -2.53444e+01  6.19405e+01             
       H -9.12991e+01 -2.49988e+01  6.03352e+01             
       O -6.99530e+01 -4.36995e+00  6.98179e+01             
       H -6.97029e+01 -4.32303e+00  7.07975e+01             
       H -6.91232e+01 -4.68271e+00  6.94614e+01             
       O -7.29124e+01 -1.34642e+01  4.81297e+01             
       H -7.24330e+01 -1.39584e+01  4.87293e+01             
       H -7.24046e+01 -1.26286e+01  3.55154e+01             
       O -7.34679e+01 -2.16944e+01  3.49507e+01             
       H -7.26380e+01 -2.23549e+01  3.49110e+01             
       H -8.54892e+01 -2.08278e+01  3.50052e+01             
       O -6.30747e+01 -2.43779e+01  3.23494e+01             
       H -6.22706e+01 -2.39025e+01  3.19684e+01             
       H -6.26250e+01 -2.50803e+01  3.28716e+01             
       O -7.09190e+01 -2.37155e+01  4.45241e+01             
       H -6.99288e+01 -2.35509e+01  4.43991e+01             
       H -7.12113e+01 -2.42311e+01  5.61556e+01             
       O -7.14839e+01 -1.45753e+01  4.43035e+01             
       H -7.68388e+01 -1.14226e+01  5.28693e+01             
       H -7.09876e+01 -1.37581e+01  4.47018e+01             
       O -6.95662e+01 -2.56949e+01  5.83327e+01             
       H -6.86871e+01 -2.52798e+01  5.82247e+01             
       H -6.95983e+01 -2.62210e+01  5.91183e+01             
       O -6.42066e+01 -1.73827e+01  4.58249e+01             
       H -6.35985e+01 -1.76740e+01  4.65156e+01             
       H -6.38005e+01 -1.73851e+01  4.48904e+01             
       O -6.82730e+01 -3.57811e+01  5.67099e+01             
       H -6.75222e+01 -3.61707e+01  5.63405e+01             
       H -6.78992e+01 -3.51374e+01  5.73960e+01             
       O -7.59855e+01 -3.37332e+00  6.61297e+01             
       H -7.54792e+01 -4.00353e+00  6.55618e+01             
       H -7.54713e+01 -2.53106e+00  6.63040e+01             
       O -7.16327e+01  5.22933e+00  7.20811e+01             
       H -7.09740e+01  4.68038e+00  7.24994e+01             
       H -7.13624e+01  5.10473e+00  7.11238e+01             
       O -7.22008e+01 -2.95152e+01  6.04624e+01             
       H -8.14186e+01 -2.27619e+01  4.92915e+01             
       H -7.18543e+01 -3.04178e+01  6.02288e+01             
       O -7.30937e+01 -2.14000e+01  6.48405e+01             
       H -7.08014e+01 -1.52864e+01  4.44151e+01             
       H -7.24275e+01 -2.07912e+01  6.45447e+01             
       O -6.88815e+01 -1.88048e+01  4.98394e+01             
       H -8.00014e+01 -9.14895e+00  5.08332e+01             
       H -6.85928e+01 -1.97842e+01  4.96640e+01             
       O -6.75368e+01 -2.93631e+01  5.60684e+01             
       H -7.93023e+01 -3.00326e+01  6.87765e+01             
       H -6.53720e+01 -1.18066e+01  6.76258e+01             
       O -1.03993e+02 -2.19052e+01  6.47107e+01             
       H -1.03330e+02 -2.10779e+01  6.46850e+01             
       H -1.03430e+02 -2.26371e+01  6.43702e+01             
       O -6.82245e+01 -3.03204e+01  5.36959e+01             
       H -6.75130e+01 -3.01236e+01  5.30507e+01             
       H -7.44675e+01 -1.65167e+01  6.35445e+01             
       O -7.72463e+01 -1.16054e+01  5.19404e+01             
       H -7.63847e+01 -1.19202e+01  5.14608e+01             
       H -8.74916e+01 -2.23781e+01  3.48197e+01             
       O -8.87192e+01 -2.36209e+01  5.42807e+01             
       H -8.83747e+01 -2.27055e+01  5.43846e+01             
       H -8.80217e+01 -2.42529e+01  5.46118e+01             
       O -7.21380e+01 -2.53268e+01  5.45302e+01             
       H -7.14420e+01 -2.47629e+01  5.40826e+01             
       H -7.17092e+01 -2.60890e+01  5.49935e+01             
       O -5.42337e+01 -3.04442e+01  5.14408e+01             
       H -5.37038e+01 -1.72172e+01  5.14728e+01             
       H -5.35636e+01 -3.11309e+01  5.17486e+01             
       O -7.13589e+01 -1.17755e+01  6.30327e+01             
       H -5.86903e+01 -1.17734e+01  6.39708e+01             
       H -7.04973e+01 -1.15857e+01  6.24552e+01             
       O -6.87154e+01 -4.42473e+00  5.97628e+01             
       H -7.39230e+01 -3.38781e+01  5.53657e+01             
       H -8.02014e+01 -1.27064e+00  5.26385e+01             
       O -8.46003e+01 -1.75254e+01  5.31794e+01             
       H -8.38277e+01 -1.68486e+01  5.31447e+01             
       H -8.42830e+01 -1.82515e+01  5.25612e+01             
       O -8.09100e+01 -9.91940e+00  4.17375e+01             
       H -8.05530e+01 -2.25372e+01  4.26545e+01             
       H -8.01160e+01 -9.72073e+00  4.11485e+01             
       O -8.59861e+01 -2.28111e+01  6.26249e+01             
       H -8.51011e+01 -2.33680e+01  6.27249e+01             
       H -8.59293e+01 -2.23566e+01  6.18098e+01             
       O -7.91272e+01 -2.57823e+01  6.36530e+01             
       H -7.87796e+01 -2.66701e+01  6.37336e+01             
       H -7.84607e+01 -2.52950e+01  6.41494e+01             
       O -8.75877e+01 -2.48159e+01  5.06539e+01             
       H -8.69882e+01 -2.40100e+01  6.28000e+01             
       H -7.94693e+01 -4.09885e+01  4.33683e+01             
       O -6.55705e+01 -2.52434e+01  7.14839e+01             
       H -6.46333e+01 -2.54029e+01  7.17528e+01             
       H -6.59198e+01 -2.60908e+01  7.11684e+01             
       O -6.97593e+01 -2.00164e+01  5.46572e+01             
       H -6.90634e+01 -1.93848e+01  5.44542e+01             
       H -6.93046e+01 -2.09146e+01  5.44528e+01             
       O -9.49924e+01 -2.41800e+01  6.55671e+01             
       H -9.44008e+01 -2.49478e+01  6.55122e+01             
       H -9.43323e+01 -2.35105e+01  6.58863e+01             
       O -6.94084e+01 -2.70698e+01  6.08193e+01             
       H -6.85699e+01 -2.65747e+01  6.09611e+01             
       H -6.90812e+01 -2.80031e+01  6.06782e+01             
       O -8.70922e+01 -1.35449e+01  2.99368e+01             
       H -8.61317e+01 -1.32056e+01  2.99049e+01             
       H -8.70935e+01 -1.38301e+01  3.08401e+01             
       O -7.59799e+01 -2.26882e+01  3.47025e+01             
       H -5.54078e+01 -1.65730e+01  4.70550e+01             
       H -7.58915e+01 -2.32782e+01  3.39238e+01             
       O -8.38158e+01 -1.54351e+01  6.24903e+01             
       H -8.33239e+01 -1.57638e+01  6.32684e+01             
       H -8.30732e+01 -1.50451e+01  6.19637e+01             
       O -8.35724e+01 -1.91460e+01  6.94436e+01             
       H -8.32099e+01 -1.82821e+01  6.96630e+01             
       H -8.30897e+01 -1.95733e+01  6.86975e+01             
