192                                                         
# CELL(abcABC):   12.41850    12.41850    12.41850    90.00000    90.00000    90.00000  Step:           0  Bead:       0 x_centroid{angstrom}  cell{angstrom}   
       O -7.25474e+01 -8.65958e+00  6.10891e+01             
       H -7.19699e+01 -8.83831e+00  6.03042e+01             
       H -7.20139e+01 -8.06887e+00  6.16901e+01             
       O -6.19635e+01 -6.72076e+00  6.00647e+01             
       H -5.87161e+01 -1.72227e+01  5.54762e+01             
       H -6.16228e+01 -6.46384e+00  5.92321e+01             
       O -6.62179e+01 -2.37856e+01  4.48894e+01             
       H -6.56696e+01 -1.20254e+01  4.44109e+01             
       H -6.56619e+01 -2.30411e+01  4.51698e+01             
       O -6.17645e+01 -2.36584e+01  5.12754e+01             
       H -6.11459e+01 -2.38090e+01  5.05111e+01             
       H -6.11016e+01 -2.34410e+01  5.20500e+01             
       O -4.96239e+01 -1.99291e+01  5.35193e+01             
       H -4.90521e+01 -1.98314e+01  5.42573e+01             
       H -4.91027e+01 -1.93185e+01  5.29762e+01             
       O -5.16591e+01 -1.69723e+01  6.43520e+01             
       H -5.06969e+01 -1.69087e+01  6.43018e+01             
       H -5.18808e+01 -1.75297e+01  6.51106e+01             
       O -6.67875e+01 -1.88252e+01  4.29051e+01             
       H -6.59564e+01 -1.83054e+01  4.27228e+01             
       H -5.28303e+01  2.98246e+00  5.16539e+01             
       O -4.97439e+01 -1.63423e+01  6.80349e+01             
       H -4.99504e+01 -1.54258e+01  6.78942e+01             
       H -4.87013e+01 -2.88774e+01  6.78951e+01             
       O -7.06325e+01 -8.71597e+00  4.33628e+01             
       H -6.97699e+01 -8.53975e+00  4.38200e+01             
       H -7.03846e+01 -9.00650e+00  4.24514e+01             
       O -6.47902e+01 -2.40591e+01  4.89973e+01             
       H -6.44206e+01 -2.47983e+01  4.94888e+01             
       H -6.40008e+01 -2.35105e+01  4.87498e+01             
       O -6.96642e+01 -6.43323e+00  5.90893e+01             
       H -6.91341e+01 -6.32345e+00  5.99061e+01             
       H -6.90531e+01 -6.44956e+00  5.83665e+01             
       O -6.44749e+01 -9.54497e+00  4.56520e+01             
       H -6.38797e+01 -9.42138e+00  4.48943e+01             
       H -5.25287e+01 -1.21365e+01  4.14286e+01             
       O -5.98019e+01 -3.01471e+01  4.60285e+01             
       H -5.88954e+01 -3.04613e+01  4.61618e+01             
       H -5.88855e+01 -2.58325e+01  5.43460e+01             
       O -6.99579e+01 -1.61769e+01  4.80050e+01             
       H -6.93500e+01 -1.54752e+01  4.76792e+01             
       H -7.01332e+01 -1.58872e+01  4.89475e+01             
       O -4.88856e+01 -2.50934e+01  5.56667e+01             
       H -4.80266e+01 -2.55206e+01  5.58435e+01             
       H -4.88327e+01 -2.48020e+01  5.47300e+01             
       O -6.27386e+01 -9.67217e+00  6.07352e+01             
       H -6.31157e+01 -8.96343e+00  6.12766e+01             
       H -6.17396e+01 -9.60389e+00  6.06870e+01             
       O -6.62974e+01 -9.08700e+00  4.20884e+01             
       H -6.54149e+01 -2.18454e+01  4.22995e+01             
       H -6.63945e+01 -9.32053e+00  4.11360e+01             
       O -6.34431e+01 -2.59741e+01  3.90218e+01             
       H -6.27825e+01 -2.52458e+01  3.90465e+01             
       H -6.30050e+01 -2.68319e+01  3.91625e+01             
       O -7.20321e+01 -1.12236e+01  4.95571e+01             
       H -7.18293e+01 -1.03179e+01  4.93523e+01             
       H -7.11915e+01 -1.17551e+01  4.94788e+01             
       O -6.67042e+01  5.34048e+00  4.54804e+01             
       H -4.25849e+01 -1.75935e+01  4.83998e+01             
       H -6.64515e+01  5.72510e+00  4.46159e+01             
       O -5.86312e+01 -1.33317e+01  5.65338e+01             
       H -5.98357e+01 -2.04884e+01  5.62590e+01             
       H -7.03975e+01 -1.40101e+01  5.64214e+01             
       O -6.01737e+01 -3.08132e+01  5.23071e+01             
       H -5.93226e+01 -3.06945e+01  5.27547e+01             
       H -5.98563e+01 -3.08847e+01  5.13775e+01             
       O -6.94243e+01 -1.78738e+01  5.61380e+01             
       H -6.85995e+01 -1.82376e+01  5.58258e+01             
       H -6.91597e+01 -1.69628e+01  5.63297e+01             
       O -5.67026e+01 -3.98383e+01  5.15903e+01             
       H -5.57897e+01 -3.98176e+01  5.13582e+01             
       H -5.68950e+01 -4.07670e+01  6.42532e+01             
       O -6.35217e+01 -1.54960e+00  4.66230e+01             
       H -6.31377e+01 -2.40045e+00  4.63969e+01             
       H -6.27021e+01 -9.25088e-01  4.69318e+01             
       O -5.70642e+01 -2.40506e+01  5.82954e+01             
       H -5.70430e+01 -2.30634e+01  5.82729e+01             
       H -5.61647e+01 -2.42397e+01  5.79057e+01             
       O -6.33975e+01 -2.15525e+01  6.39843e+01             
       H -6.28206e+01 -2.09878e+01  6.44902e+01             
       H -6.27657e+01 -2.22685e+01  6.36717e+01             
       O -7.81380e+01 -2.06689e+01  4.82676e+01             
       H -7.77065e+01 -2.07816e+01  4.74308e+01             
       H -7.75302e+01 -2.02422e+01  4.88841e+01             
       O -5.48305e+01  1.72997e-01  6.29961e+01             
       H -5.42761e+01  8.55602e-01  6.26617e+01             
       H -5.42919e+01 -5.85743e-01  6.28982e+01             
       O -6.00680e+01 -1.16996e+01  4.08710e+01             
       H -5.97218e+01 -1.25090e+01  4.04151e+01             
       H -5.93129e+01 -1.10758e+01  2.83879e+01             
       O -5.58494e+01 -1.24360e+01  2.91759e+01             
       H -5.52820e+01 -1.29154e+01  2.84812e+01             
       H -6.77171e+01 -1.25512e+01  2.99483e+01             
       O -4.91470e+01 -1.58747e+01  2.68407e+01             
       H -4.86244e+01 -1.65169e+01  2.73070e+01             
       H -4.84725e+01 -1.52890e+01  2.63995e+01             
       O -5.78928e+01 -2.14441e+01  3.45789e+01             
       H -5.77019e+01 -2.05259e+01  3.43133e+01             
       H -5.71327e+01 -2.17463e+01  4.75577e+01             
       O -5.73015e+01 -1.27511e+01  3.67394e+01             
       H -6.31464e+01 -1.00918e+01  4.27342e+01             
       H -5.65488e+01 -1.25311e+01  3.73162e+01             
       O -5.77040e+01 -2.27836e+01  5.35953e+01             
       H -5.70789e+01 -2.33016e+01  5.40708e+01             
       H -5.73042e+01 -2.26964e+01  5.27195e+01             
       O -4.69114e+01 -1.41271e+01  3.85101e+01             
       H -4.64207e+01 -1.42536e+01  3.92978e+01             
       H -4.62909e+01 -1.38046e+01  3.78740e+01             
       O -5.34683e+01 -2.78080e+01  4.77429e+01             
       H -5.30529e+01 -2.85900e+01  4.73314e+01             
       H -5.28502e+01 -2.70947e+01  4.75851e+01             
       O -5.96750e+01 -2.40122e+00  5.91500e+01             
       H -5.90837e+01 -1.89758e+00  5.85411e+01             
       H -5.90392e+01 -2.89734e+00  5.97953e+01             
       O -5.23438e+01  6.93168e+00  7.18617e+01             
       H -5.14692e+01  7.12947e+00  7.15078e+01             
       H -5.21746e+01  6.67382e+00  7.27904e+01             
       O -5.85571e+01 -2.65144e+01  5.37824e+01             
       H -6.65849e+01 -1.97325e+01  4.25587e+01             
       H -5.76258e+01 -2.63228e+01  5.37388e+01             
       O -5.94591e+01 -1.66773e+01  5.51397e+01             
       H -5.71391e+01 -1.22993e+01  3.59081e+01             
       H -5.90971e+01 -1.60053e+01  5.46488e+01             
       O -5.28947e+01 -1.25929e+01  4.06977e+01             
       H -6.58939e+01 -6.97345e+00  4.60577e+01             
       H -5.21092e+01 -1.31317e+01  4.04127e+01             
       O -5.37738e+01 -2.75986e+01  5.05321e+01             
       H -6.55761e+01 -2.80360e+01  6.35277e+01             
       H -4.89324e+01 -7.33807e+00  6.04600e+01             
       O -8.89289e+01 -1.32441e+01  5.64902e+01             
       H -8.80720e+01 -1.29613e+01  5.60858e+01             
       H -8.86186e+01 -1.34084e+01  5.73987e+01             
       O -5.52200e+01 -3.09382e+01  4.84673e+01             
       H -5.43255e+01 -3.13698e+01  4.83985e+01             
       H -5.81131e+01 -1.25814e+01  5.68506e+01             
       O -6.38662e+01 -1.03147e+01  4.20946e+01             
       H -6.35317e+01 -9.92580e+00  4.12794e+01             
       H -7.60693e+01 -1.88007e+01  2.97192e+01             
       O -7.26096e+01 -2.27230e+01  4.57831e+01             
       H -7.23170e+01 -2.36065e+01  4.60114e+01             
       H -7.16954e+01 -2.24199e+01  4.55762e+01             
       O -5.64628e+01 -2.22514e+01  3.86103e+01             
       H -5.63969e+01 -2.23851e+01  3.76227e+01             
       H -5.55467e+01 -2.23007e+01  3.88133e+01             
       O -4.21014e+01 -2.46589e+01  4.73290e+01             
       H -4.13387e+01 -1.22186e+01  4.78950e+01             
       H -4.16944e+01 -2.44336e+01  4.64926e+01             
       O -5.62771e+01 -6.97199e+00  5.10107e+01             
       H -4.37427e+01 -7.93956e+00  5.11927e+01             
       H -5.57244e+01 -6.69115e+00  5.01943e+01             
       O -5.36767e+01  2.55340e+00  5.18831e+01             
       H -5.96926e+01 -2.91708e+01  4.57533e+01             
       H -6.38061e+01  2.77115e+00  4.63747e+01             
       O -6.83580e+01 -1.46259e+01  4.66223e+01             
       H -6.75988e+01 -1.51275e+01  4.69390e+01             
       H -6.82520e+01 -1.37246e+01  4.68895e+01             
       O -6.25978e+01 -4.26772e+00  3.36255e+01             
       H -6.17582e+01 -1.68644e+01  3.40519e+01             
       H -6.23769e+01 -4.15505e+00  3.27040e+01             
       O -6.99846e+01 -1.80950e+01  5.31488e+01             
       H -6.96169e+01 -1.81390e+01  5.40504e+01             
       H -6.93413e+01 -1.84823e+01  5.25383e+01             
       O -6.22847e+01 -2.19410e+01  5.64854e+01             
       H -6.19220e+01 -2.10636e+01  5.64950e+01             
       H -6.15759e+01 -2.24223e+01  5.69628e+01             
       O -7.30181e+01 -1.98633e+01  4.38564e+01             
       H -7.27717e+01 -1.91115e+01  5.68858e+01             
       H -6.59077e+01 -4.03133e+01  3.72197e+01             
       O -5.16998e+01 -1.88115e+01  6.20679e+01             
       H -5.08109e+01 -1.85161e+01  6.19165e+01             
       H -5.18486e+01 -1.84134e+01  6.29331e+01             
       O -5.88659e+01 -1.86921e+01  4.98352e+01             
       H -5.79576e+01 -1.89961e+01  4.99593e+01             
       H -5.88514e+01 -1.83317e+01  4.89104e+01             
       O -8.06055e+01 -2.13976e+01  5.69376e+01             
       H -7.99904e+01 -2.07274e+01  5.74116e+01             
       H -7.98841e+01 -2.18190e+01  5.63996e+01             
       O -5.56455e+01 -2.23999e+01  4.83607e+01             
       H -5.48172e+01 -2.19238e+01  4.85380e+01             
       H -5.53448e+01 -2.32761e+01  4.80353e+01             
       O -7.38605e+01 -1.26866e+01  2.26454e+01             
       H -7.32270e+01 -1.34296e+01  2.24951e+01             
       H -7.34693e+01 -1.22847e+01  2.34619e+01             
       O -6.41046e+01 -1.79469e+01  2.98559e+01             
       H -4.10345e+01 -1.07631e+01  3.97578e+01             
       H -6.34292e+01 -1.72966e+01  3.02231e+01             
       O -6.62594e+01 -1.42905e+01  5.53975e+01             
       H -6.54645e+01 -1.41085e+01  5.59234e+01             
       H -6.59036e+01 -1.44936e+01  5.45045e+01             
       O -6.89185e+01 -1.50266e+01  6.87984e+01             
       H -6.82442e+01 -1.47611e+01  6.81479e+01             
       H -6.85759e+01 -1.49408e+01  6.97371e+01             
192                                                         
# CELL(abcABC):   12.41850    12.41850    12.41850    90.00000    90.00000    90.00000  Step:      200000  Bead:       0 x_centroid{angstrom}  cell{angstrom}   
       O -8.76865e+01 -1.07895e+01  6.48013e+01             
       H -8.71730e+01 -1.14200e+01  6.42901e+01             
       H -8.71901e+01 -1.01398e+01  6.53183e+01             
       O -7.27641e+01 -6.47694e+00  6.64451e+01             
       H -7.17760e+01 -2.15377e+01  5.78689e+01             
       H -7.23977e+01 -6.16212e+00  6.73200e+01             
       O -7.70534e+01 -2.88189e+01  5.67791e+01             
       H -7.62298e+01 -1.58974e+01  5.64860e+01             
       H -7.67313e+01 -2.94198e+01  5.75262e+01             
       O -7.56824e+01 -2.42966e+01  5.86827e+01             
       H -7.50115e+01 -2.39264e+01  5.92353e+01             
       H -7.52522e+01 -2.47387e+01  5.79197e+01             
       O -6.14862e+01 -2.25747e+01  5.99888e+01             
       H -6.08028e+01 -2.30432e+01  6.05256e+01             
       H -6.09943e+01 -2.19449e+01  5.93107e+01             
       O -6.35006e+01 -1.89543e+01  6.72029e+01             
       H -6.28713e+01 -1.82279e+01  6.72275e+01             
       H -6.31045e+01 -1.95753e+01  6.77897e+01             
       O -7.75868e+01 -2.00554e+01  4.58811e+01             
       H -7.68128e+01 -1.95003e+01  4.56875e+01             
       H -6.72626e+01  2.67773e+00  5.83778e+01             
       O -6.13656e+01 -2.11303e+01  7.56723e+01             
       H -6.11062e+01 -2.01709e+01  7.57783e+01             
       H -6.04906e+01 -3.40350e+01  7.56492e+01             
       O -8.45789e+01 -1.40523e+01  4.58307e+01             
       H -8.39834e+01 -1.47390e+01  4.53611e+01             
       H -8.39817e+01 -1.34639e+01  4.63000e+01             
       O -7.55484e+01 -3.07210e+01  5.80438e+01             
       H -7.52194e+01 -3.06509e+01  5.89909e+01             
       H -7.48195e+01 -3.07357e+01  5.74106e+01             
       O -8.14133e+01 -1.36509e+01  6.39284e+01             
       H -8.07265e+01 -1.28716e+01  6.38998e+01             
       H -8.07238e+01 -1.44224e+01  6.39650e+01             
       O -7.69142e+01 -1.23800e+01  5.40474e+01             
       H -7.62419e+01 -1.29952e+01  5.44653e+01             
       H -6.51134e+01 -1.73764e+01  4.94575e+01             
       O -7.10547e+01 -3.47105e+01  5.04026e+01             
       H -7.04245e+01 -3.47535e+01  5.11535e+01             
       H -7.02192e+01 -3.26686e+01  6.02893e+01             
       O -7.98889e+01 -1.86718e+01  5.72500e+01             
       H -7.90296e+01 -1.91345e+01  5.74700e+01             
       H -7.96704e+01 -1.82349e+01  5.64393e+01             
       O -6.04670e+01 -3.07110e+01  6.34087e+01             
       H -6.07952e+01 -3.03897e+01  6.42325e+01             
       H -5.94931e+01 -3.08799e+01  6.35169e+01             
       O -7.89185e+01 -1.14849e+01  6.79877e+01             
       H -7.84808e+01 -1.09552e+01  6.86068e+01             
       H -7.82958e+01 -1.19766e+01  6.73967e+01             
       O -7.92012e+01 -1.58265e+01  5.17984e+01             
       H -7.87182e+01 -2.83022e+01  5.09347e+01             
       H -7.85508e+01 -1.57050e+01  5.24802e+01             
       O -7.67139e+01 -3.14052e+01  5.00404e+01             
       H -7.58057e+01 -3.15244e+01  4.97375e+01             
       H -7.66505e+01 -3.16167e+01  5.09623e+01             
       O -8.77464e+01 -1.46992e+01  5.54171e+01             
       H -8.72348e+01 -1.53910e+01  5.49487e+01             
       H -8.69808e+01 -1.40824e+01  5.56713e+01             
       O -7.97071e+01  7.43370e-01  5.05715e+01             
       H -5.62288e+01 -2.20729e+01  5.27562e+01             
       H -7.88953e+01  1.36119e+00  5.05724e+01             
       O -7.02689e+01 -1.75462e+01  6.24350e+01             
       H -7.16458e+01 -2.50181e+01  6.16488e+01             
       H -8.20082e+01 -1.77823e+01  6.30682e+01             
       O -7.17848e+01 -3.61550e+01  5.49424e+01             
       H -7.12886e+01 -3.68882e+01  5.45416e+01             
       H -7.13470e+01 -3.58269e+01  5.57415e+01             
       O -8.12663e+01 -2.13582e+01  6.10957e+01             
       H -8.05903e+01 -2.14793e+01  6.03972e+01             
       H -8.06931e+01 -2.11103e+01  6.18575e+01             
       O -6.75767e+01 -4.02573e+01  6.02257e+01             
       H -6.71595e+01 -3.99422e+01  5.94178e+01             
       H -6.69001e+01 -4.05292e+01  7.32762e+01             
       O -7.58923e+01 -7.82237e+00  5.23194e+01             
       H -7.55810e+01 -7.62412e+00  5.32274e+01             
       H -7.52632e+01 -8.36482e+00  5.17423e+01             
       O -6.70986e+01 -2.96423e+01  6.73061e+01             
       H -6.74047e+01 -2.99073e+01  6.64531e+01             
       H -6.62156e+01 -2.92482e+01  6.71934e+01             
       O -7.71040e+01 -2.24546e+01  6.96339e+01             
       H -7.66853e+01 -2.31787e+01  7.01433e+01             
       H -7.63241e+01 -2.20917e+01  6.91705e+01             
       O -9.25963e+01 -2.17135e+01  5.41796e+01             
       H -9.17383e+01 -2.11656e+01  5.39450e+01             
       H -9.22590e+01 -2.25930e+01  5.44679e+01             
       O -6.98540e+01  1.24785e-01  7.12015e+01             
       H -6.92425e+01 -3.73198e-01  7.05341e+01             
       H -6.93751e+01  5.55556e-02  7.20008e+01             
       O -7.35973e+01 -1.52821e+01  4.78319e+01             
       H -7.31910e+01 -1.48180e+01  4.70425e+01             
       H -7.29532e+01 -1.54696e+01  3.61670e+01             
       O -6.91840e+01 -1.74422e+01  3.41603e+01             
       H -6.86896e+01 -1.68080e+01  3.46673e+01             
       H -8.09353e+01 -1.78362e+01  3.35057e+01             
       O -6.21387e+01 -1.79683e+01  3.56861e+01             
       H -6.13420e+01 -1.82695e+01  3.62229e+01             
       H -6.19988e+01 -1.70247e+01  3.55167e+01             
       O -7.07419e+01 -2.62470e+01  4.12226e+01             
       H -7.00055e+01 -2.61064e+01  4.05388e+01             
       H -7.04683e+01 -2.68759e+01  5.43650e+01             
       O -6.93201e+01 -1.55122e+01  4.32028e+01             
       H -7.54995e+01 -1.41333e+01  4.98493e+01             
       H -6.85195e+01 -1.59788e+01  4.30150e+01             
       O -6.77072e+01 -2.49980e+01  6.04172e+01             
       H -6.69422e+01 -2.56258e+01  6.01082e+01             
       H -6.74252e+01 -2.42029e+01  6.00829e+01             
       O -6.12604e+01 -1.28679e+01  4.37452e+01             
       H -6.07336e+01 -1.22773e+01  4.30498e+01             
       H -6.06227e+01 -1.32381e+01  4.43849e+01             
       O -6.57309e+01 -3.25839e+01  5.36710e+01             
       H -6.54409e+01 -3.17763e+01  5.41756e+01             
       H -6.49693e+01 -3.26709e+01  5.30704e+01             
       O -7.18558e+01 -3.05641e+00  6.22882e+01             
       H -7.12947e+01 -2.39117e+00  6.18503e+01             
       H -7.13479e+01 -3.85839e+00  6.23048e+01             
       O -6.45865e+01 -3.57909e+00  7.84306e+01             
       H -6.37955e+01 -4.11072e+00  7.81767e+01             
       H -6.42096e+01 -3.04687e+00  7.91507e+01             
       O -7.08037e+01 -3.20039e+01  5.99261e+01             
       H -7.74352e+01 -2.09399e+01  4.54354e+01             
       H -7.01889e+01 -3.13510e+01  5.94958e+01             
       O -7.24756e+01 -2.10075e+01  5.82491e+01             
       H -6.89460e+01 -1.46603e+01  4.36481e+01             
       H -7.20691e+01 -2.04517e+01  5.89513e+01             
       O -6.55702e+01 -1.65163e+01  4.94169e+01             
       H -7.99364e+01 -1.19606e+01  4.96134e+01             
       H -6.47684e+01 -1.59019e+01  4.91639e+01             
       O -7.29311e+01 -3.07336e+01  5.68489e+01             
       H -8.49777e+01 -3.15839e+01  6.94693e+01             
       H -5.95307e+01 -6.61384e+00  6.59275e+01             
       O -9.91941e+01 -1.66013e+01  6.60401e+01             
       H -9.88202e+01 -1.58548e+01  6.55459e+01             
       H -9.84811e+01 -1.72413e+01  6.61443e+01             
       O -6.89854e+01 -3.47514e+01  5.18865e+01             
       H -6.82792e+01 -3.53088e+01  5.14491e+01             
       H -7.02038e+01 -1.80797e+01  6.16516e+01             
       O -7.58506e+01 -1.46555e+01  4.91160e+01             
       H -7.50435e+01 -1.50307e+01  4.86357e+01             
       H -8.91879e+01 -2.11856e+01  3.52740e+01             
       O -8.52201e+01 -2.70553e+01  5.22705e+01             
       H -8.48368e+01 -2.73567e+01  5.14292e+01             
       H -8.44246e+01 -2.67574e+01  5.28701e+01             
       O -7.06324e+01 -2.27190e+01  4.48101e+01             
       H -7.04083e+01 -2.33359e+01  4.55289e+01             
       H -6.98198e+01 -2.21528e+01  4.47103e+01             
       O -5.27479e+01 -2.56839e+01  5.98114e+01             
       H -5.22431e+01 -1.37351e+01  6.04908e+01             
       H -5.23490e+01 -2.49388e+01  5.93638e+01             
       O -6.84469e+01 -8.81891e+00  5.68596e+01             
       H -5.58777e+01 -7.85614e+00  5.69895e+01             
       H -6.82204e+01 -8.96867e+00  5.59126e+01             
       O -6.68877e+01  2.43692e+00  5.92043e+01             
       H -7.03048e+01 -3.44292e+01  4.97882e+01             
       H -7.64825e+01  6.60990e-01  5.34289e+01             
       O -7.86494e+01 -1.44756e+01  5.77588e+01             
       H -7.81517e+01 -1.51466e+01  5.72587e+01             
       H -7.79065e+01 -1.41361e+01  5.83644e+01             
       O -7.73357e+01 -9.96084e+00  3.83668e+01             
       H -7.65419e+01 -2.25450e+01  3.90142e+01             
       H -7.68372e+01 -9.90694e+00  3.75220e+01             
       O -8.70723e+01 -2.13661e+01  5.63171e+01             
       H -8.65956e+01 -2.09240e+01  5.70744e+01             
       H -8.63889e+01 -2.16816e+01  5.57014e+01             
       O -7.44906e+01 -2.52980e+01  6.34037e+01             
       H -7.38392e+01 -2.48410e+01  6.28524e+01             
       H -7.39120e+01 -2.58615e+01  6.40222e+01             
       O -8.47514e+01 -2.43414e+01  4.92526e+01             
       H -8.42716e+01 -2.35178e+01  6.20480e+01             
       H -8.47204e+01 -4.24211e+01  4.47343e+01             
       O -6.10117e+01 -2.17118e+01  6.63660e+01             
       H -6.08971e+01 -2.07669e+01  6.63063e+01             
       H -6.01256e+01 -2.20810e+01  6.65637e+01             
       O -7.04649e+01 -1.95338e+01  5.28947e+01             
       H -7.01612e+01 -2.03972e+01  5.30467e+01             
       H -6.95923e+01 -1.91358e+01  5.27316e+01             
       O -9.47545e+01 -2.62376e+01  6.13339e+01             
       H -9.44889e+01 -2.61261e+01  6.22996e+01             
       H -9.39284e+01 -2.65022e+01  6.09430e+01             
       O -6.82709e+01 -2.57561e+01  5.67789e+01             
       H -6.78968e+01 -2.50499e+01  5.62175e+01             
       H -6.75010e+01 -2.61217e+01  5.72515e+01             
       O -8.35387e+01 -1.63250e+01  3.25862e+01             
       H -8.31132e+01 -1.65989e+01  3.34100e+01             
       H -8.27878e+01 -1.62217e+01  3.19712e+01             
       O -7.65252e+01 -2.20728e+01  3.56185e+01             
       H -5.35238e+01 -9.79189e+00  4.66921e+01             
       H -7.55497e+01 -2.20751e+01  3.54717e+01             
       O -7.92210e+01 -2.02816e+01  6.28782e+01             
       H -7.85171e+01 -1.99916e+01  6.23275e+01             
       H -7.87895e+01 -2.09560e+01  6.34335e+01             
       O -8.06241e+01 -1.81855e+01  7.65652e+01             
       H -8.03554e+01 -1.72095e+01  7.64091e+01             
       H -7.98274e+01 -1.86363e+01  7.61886e+01             
