192                                                         
# CELL(abcABC):   12.41850    12.41850    12.41850    90.00000    90.00000    90.00000  Step:           0  Bead:       0 x_centroid{angstrom}  cell{angstrom}   
       O -7.28795e+01 -9.46940e+00  6.08836e+01             
       H -7.23133e+01 -1.01092e+01  6.03515e+01             
       H -7.22386e+01 -8.89474e+00  6.13777e+01             
       O -6.38513e+01 -6.33132e+00  6.17982e+01             
       H -6.13973e+01 -1.69438e+01  5.44419e+01             
       H -6.35323e+01 -5.99073e+00  6.26104e+01             
       O -6.74397e+01 -2.49379e+01  4.60841e+01             
       H -6.66509e+01 -1.29994e+01  4.61640e+01             
       H -6.73064e+01 -2.41330e+01  4.66026e+01             
       O -6.36495e+01 -2.47157e+01  5.17722e+01             
       H -6.30537e+01 -2.39710e+01  5.17281e+01             
       H -6.31934e+01 -2.55529e+01  5.17242e+01             
       O -5.14388e+01 -2.05697e+01  5.45192e+01             
       H -5.07631e+01 -2.04030e+01  5.51972e+01             
       H -5.09433e+01 -2.05400e+01  5.36672e+01             
       O -5.36113e+01 -1.76312e+01  6.40622e+01             
       H -5.30158e+01 -1.71987e+01  6.34003e+01             
       H -5.32016e+01 -1.78351e+01  6.49461e+01             
       O -6.77557e+01 -1.93654e+01  4.33672e+01             
       H -6.70875e+01 -1.88500e+01  4.28345e+01             
       H -5.41373e+01  1.79286e+00  5.30880e+01             
       O -5.18358e+01 -1.65707e+01  6.80066e+01             
       H -5.22504e+01 -1.57126e+01  6.79732e+01             
       H -5.08751e+01 -2.88736e+01  6.77239e+01             
       O -7.37034e+01 -9.95109e+00  4.43419e+01             
       H -7.27098e+01 -1.00564e+01  4.46154e+01             
       H -7.37597e+01 -1.03094e+01  4.34607e+01             
       O -6.62737e+01 -2.64590e+01  4.91589e+01             
       H -6.55979e+01 -2.70944e+01  4.93851e+01             
       H -6.57997e+01 -2.56909e+01  4.87846e+01             
       O -7.06694e+01 -7.55325e+00  5.84954e+01             
       H -7.01905e+01 -6.94920e+00  5.78611e+01             
       H -7.03699e+01 -7.30220e+00  5.93536e+01             
       O -6.65509e+01 -1.00102e+01  4.77862e+01             
       H -6.61000e+01 -9.15565e+00  4.76878e+01             
       H -5.27087e+01 -1.37442e+01  4.22526e+01             
       O -6.05355e+01 -3.07232e+01  4.63227e+01             
       H -5.98606e+01 -3.14512e+01  4.61502e+01             
       H -6.01875e+01 -2.65795e+01  5.57669e+01             
       O -7.24091e+01 -1.47479e+01  5.00372e+01             
       H -7.21564e+01 -1.39651e+01  5.04922e+01             
       H -7.16372e+01 -1.53174e+01  5.01513e+01             
       O -5.20626e+01 -2.43817e+01  5.64656e+01             
       H -5.19945e+01 -2.37641e+01  5.71599e+01             
       H -5.13968e+01 -2.40418e+01  5.58422e+01             
       O -6.44859e+01 -1.18591e+01  6.13953e+01             
       H -6.40337e+01 -1.18751e+01  6.22503e+01             
       H -6.38166e+01 -1.19991e+01  6.07036e+01             
       O -6.64447e+01 -9.33886e+00  4.42431e+01             
       H -6.61148e+01 -2.22999e+01  4.35171e+01             
       H -6.58128e+01 -9.35545e+00  4.49506e+01             
       O -6.63136e+01 -2.56312e+01  3.92898e+01             
       H -6.54926e+01 -2.50719e+01  3.92849e+01             
       H -6.63417e+01 -2.59639e+01  3.83125e+01             
       O -7.43452e+01 -1.02724e+01  5.11355e+01             
       H -7.35192e+01 -1.00227e+01  5.15681e+01             
       H -7.41125e+01 -1.03913e+01  5.02024e+01             
       O -6.80019e+01  6.40589e+00  4.60186e+01             
       H -4.49381e+01 -1.84875e+01  4.85379e+01             
       H -6.78248e+01  6.23709e+00  4.50649e+01             
       O -5.92737e+01 -1.42290e+01  5.73563e+01             
       H -6.15616e+01 -2.04930e+01  5.67550e+01             
       H -7.08621e+01 -1.46767e+01  5.72997e+01             
       O -6.18749e+01 -3.06447e+01  5.13786e+01             
       H -6.13243e+01 -3.00536e+01  5.18249e+01             
       H -6.12749e+01 -3.13660e+01  5.11040e+01             
       O -7.03877e+01 -1.78701e+01  5.60888e+01             
       H -6.96277e+01 -1.83380e+01  5.56957e+01             
       H -7.00229e+01 -1.69907e+01  5.63005e+01             
       O -5.84667e+01 -4.16967e+01  5.17408e+01             
       H -5.88736e+01 -4.25973e+01  5.15813e+01             
       H -5.75520e+01 -4.16664e+01  6.38635e+01             
       O -6.31383e+01 -3.26580e+00  4.72972e+01             
       H -6.29935e+01 -4.13316e+00  4.68737e+01             
       H -6.22664e+01 -2.78833e+00  4.71150e+01             
       O -5.89131e+01 -2.36727e+01  5.95389e+01             
       H -5.81871e+01 -2.33572e+01  6.01709e+01             
       H -5.87254e+01 -2.31956e+01  5.87154e+01             
       O -6.50246e+01 -2.29564e+01  6.61255e+01             
       H -6.46044e+01 -2.21421e+01  6.63770e+01             
       H -6.43154e+01 -2.35677e+01  6.58954e+01             
       O -7.95576e+01 -1.99788e+01  5.01218e+01             
       H -7.88768e+01 -2.06922e+01  5.02767e+01             
       H -7.92398e+01 -1.91358e+01  5.05341e+01             
       O -5.65575e+01 -1.44396e+00  6.44280e+01             
       H -5.56648e+01 -1.10820e+00  6.46751e+01             
       H -5.63053e+01 -2.20591e+00  6.38612e+01             
       O -6.19465e+01 -1.13152e+01  4.19770e+01             
       H -6.16048e+01 -1.22175e+01  4.21319e+01             
       H -6.13141e+01 -1.08894e+01  2.89321e+01             
       O -5.90497e+01 -1.44495e+01  2.81464e+01             
       H -5.89108e+01 -1.53874e+01  2.78116e+01             
       H -7.06036e+01 -1.40711e+01  2.83566e+01             
       O -5.19585e+01 -1.59628e+01  2.48035e+01             
       H -5.14587e+01 -1.61707e+01  2.40275e+01             
       H -5.13203e+01 -1.55463e+01  2.54103e+01             
       O -5.66485e+01 -2.26001e+01  3.64937e+01             
       H -5.56759e+01 -2.26759e+01  3.62600e+01             
       H -5.66610e+01 -2.22051e+01  4.97853e+01             
       O -5.83046e+01 -1.22070e+01  3.82748e+01             
       H -6.33142e+01 -9.30343e+00  4.65071e+01             
       H -5.77136e+01 -1.26911e+01  3.88054e+01             
       O -5.96031e+01 -2.26426e+01  5.26458e+01             
       H -5.90928e+01 -2.32118e+01  5.21090e+01             
       H -5.90335e+01 -2.23086e+01  5.33933e+01             
       O -4.99137e+01 -1.48315e+01  3.89710e+01             
       H -5.00234e+01 -1.55268e+01  3.96410e+01             
       H -4.90232e+01 -1.49139e+01  3.85706e+01             
       O -5.42525e+01 -2.95154e+01  4.85506e+01             
       H -5.33571e+01 -2.94110e+01  4.88632e+01             
       H -5.44565e+01 -2.87007e+01  4.80427e+01             
       O -6.07191e+01 -1.86186e+00  5.96411e+01             
       H -6.00920e+01 -2.07479e+00  5.89492e+01             
       H -6.02827e+01 -2.12364e+00  6.04707e+01             
       O -5.46610e+01  9.17505e+00  7.03942e+01             
       H -5.45845e+01  8.17324e+00  7.05920e+01             
       H -5.36820e+01  9.53502e+00  7.04614e+01             
       O -6.06977e+01 -2.64528e+01  5.49581e+01             
       H -6.72574e+01 -2.01186e+01  4.37109e+01             
       H -6.01086e+01 -2.66266e+01  5.41822e+01             
       O -6.19958e+01 -1.62034e+01  5.42903e+01             
       H -5.77386e+01 -1.17818e+01  3.76088e+01             
       H -6.15955e+01 -1.53321e+01  5.45196e+01             
       O -5.35988e+01 -1.41439e+01  4.21334e+01             
       H -6.73910e+01 -6.58739e+00  4.64635e+01             
       H -5.36446e+01 -1.42021e+01  4.11892e+01             
       O -5.57716e+01 -2.88877e+01  5.08583e+01             
       H -6.74852e+01 -2.91449e+01  6.38469e+01             
       H -5.06836e+01 -6.59976e+00  6.12166e+01             
       O -8.97959e+01 -1.41957e+01  5.84512e+01             
       H -8.93432e+01 -1.35936e+01  5.78162e+01             
       H -8.90827e+01 -1.47374e+01  5.88747e+01             
       O -5.75873e+01 -3.18023e+01  4.87684e+01             
       H -5.67755e+01 -3.23532e+01  4.87721e+01             
       H -5.90575e+01 -1.33449e+01  5.76254e+01             
       O -6.36760e+01 -9.79061e+00  4.57597e+01             
       H -6.28929e+01 -9.72646e+00  4.51592e+01             
       H -7.76760e+01 -1.93965e+01  2.95603e+01             
       O -7.46600e+01 -2.00098e+01  4.73783e+01             
       H -7.42356e+01 -1.91833e+01  4.70588e+01             
       H -7.39564e+01 -2.05747e+01  4.77284e+01             
       O -5.64331e+01 -2.29440e+01  4.35797e+01             
       H -5.56659e+01 -2.26606e+01  4.41046e+01             
       H -5.63577e+01 -2.38954e+01  4.35138e+01             
       O -4.39460e+01 -2.68967e+01  4.78987e+01             
       H -4.31986e+01 -1.43373e+01  4.85127e+01             
       H -4.35973e+01 -2.64301e+01  4.71256e+01             
       O -5.81037e+01 -8.32145e+00  5.40258e+01             
       H -4.50677e+01 -8.51638e+00  5.47352e+01             
       H -5.74701e+01 -8.01411e+00  5.33981e+01             
       O -5.50603e+01  1.63235e+00  5.27472e+01             
       H -5.99131e+01 -2.99673e+01  4.66350e+01             
       H -6.59080e+01  1.79775e+00  4.82294e+01             
       O -7.02155e+01 -1.69160e+01  4.70594e+01             
       H -6.98048e+01 -1.60794e+01  4.73100e+01             
       H -6.95098e+01 -1.73520e+01  4.65443e+01             
       O -6.60291e+01 -7.30649e+00  3.49217e+01             
       H -6.52872e+01 -1.91970e+01  3.46211e+01             
       H -6.61280e+01 -6.88292e+00  3.57881e+01             
       O -7.26142e+01 -1.87900e+01  5.45758e+01             
       H -7.17855e+01 -1.84917e+01  5.50239e+01             
       H -7.23885e+01 -1.95461e+01  5.40699e+01             
       O -6.38791e+01 -1.78844e+01  5.82035e+01             
       H -6.42330e+01 -1.74777e+01  5.73851e+01             
       H -6.32233e+01 -1.85382e+01  5.78180e+01             
       O -7.44598e+01 -1.96918e+01  4.41408e+01             
       H -7.37199e+01 -1.92420e+01  5.60912e+01             
       H -6.78147e+01 -4.14277e+01  3.75753e+01             
       O -5.20072e+01 -2.12423e+01  6.26814e+01             
       H -5.18114e+01 -2.05072e+01  6.20352e+01             
       H -5.12248e+01 -2.16551e+01  6.29428e+01             
       O -5.92425e+01 -1.97220e+01  5.10210e+01             
       H -5.89903e+01 -2.05045e+01  5.15672e+01             
       H -5.86451e+01 -1.96081e+01  5.02735e+01             
       O -8.34131e+01 -2.22775e+01  5.70906e+01             
       H -8.33036e+01 -2.14189e+01  5.74164e+01             
       H -8.25671e+01 -2.25504e+01  5.66090e+01             
       O -5.66588e+01 -2.13672e+01  5.15038e+01             
       H -5.60457e+01 -2.07055e+01  5.10457e+01             
       H -5.60505e+01 -2.18958e+01  5.21180e+01             
       O -7.51907e+01 -1.23735e+01  2.20139e+01             
       H -7.49296e+01 -1.16041e+01  2.14749e+01             
       H -7.43771e+01 -1.28780e+01  2.23042e+01             
       O -6.57020e+01 -1.85353e+01  2.93484e+01             
       H -4.25511e+01 -1.14233e+01  3.96269e+01             
       H -6.50962e+01 -1.78827e+01  2.97107e+01             
       O -6.83044e+01 -1.32251e+01  5.58684e+01             
       H -6.78630e+01 -1.29404e+01  5.67054e+01             
       H -6.75432e+01 -1.34791e+01  5.52701e+01             
       O -6.93931e+01 -1.56041e+01  6.92495e+01             
       H -6.89259e+01 -1.49882e+01  6.86403e+01             
       H -6.85543e+01 -1.57340e+01  6.97203e+01             
192                                                         
# CELL(abcABC):   12.41850    12.41850    12.41850    90.00000    90.00000    90.00000  Step:      200000  Bead:       0 x_centroid{angstrom}  cell{angstrom}   
       O -8.65821e+01 -1.20816e+01  6.41555e+01             
       H -8.59978e+01 -1.24973e+01  6.48289e+01             
       H -8.61074e+01 -1.14438e+01  6.35787e+01             
       O -7.55704e+01 -1.01866e+01  6.57642e+01             
       H -7.37766e+01 -1.89054e+01  6.38481e+01             
       H -7.54031e+01 -1.08226e+01  6.50330e+01             
       O -7.90717e+01 -2.95237e+01  5.37135e+01             
       H -7.86753e+01 -1.62569e+01  5.34983e+01             
       H -7.83075e+01 -3.00730e+01  5.39999e+01             
       O -7.57045e+01 -2.83716e+01  5.97108e+01             
       H -7.50687e+01 -2.76520e+01  6.00097e+01             
       H -7.51010e+01 -2.89755e+01  5.91949e+01             
       O -6.34661e+01 -2.21291e+01  6.12820e+01             
       H -6.33648e+01 -2.25412e+01  6.04011e+01             
       H -6.26314e+01 -2.22703e+01  6.17769e+01             
       O -6.79137e+01 -2.25344e+01  7.02945e+01             
       H -6.74505e+01 -2.19410e+01  6.96987e+01             
       H -6.72367e+01 -2.31246e+01  7.07000e+01             
       O -8.16723e+01 -2.17166e+01  4.77152e+01             
       H -8.11679e+01 -2.18909e+01  4.85271e+01             
       H -6.70262e+01 -1.11523e+00  5.83038e+01             
       O -6.40679e+01 -2.02090e+01  7.73873e+01             
       H -6.33138e+01 -1.97578e+01  7.68290e+01             
       H -6.38491e+01 -3.35554e+01  7.74330e+01             
       O -8.60994e+01 -1.44555e+01  4.85333e+01             
       H -8.58593e+01 -1.53759e+01  4.88318e+01             
       H -8.52592e+01 -1.39465e+01  4.84470e+01             
       O -7.75173e+01 -3.15214e+01  5.47365e+01             
       H -7.70266e+01 -3.17973e+01  5.38621e+01             
       H -7.68608e+01 -3.16111e+01  5.54672e+01             
       O -8.16255e+01 -1.40368e+01  6.22625e+01             
       H -8.07217e+01 -1.42236e+01  6.19347e+01             
       H -8.15903e+01 -1.33137e+01  6.29263e+01             
       O -7.77389e+01 -1.43961e+01  5.25983e+01             
       H -7.71735e+01 -1.39589e+01  5.19415e+01             
       H -7.02773e+01 -2.02804e+01  5.36282e+01             
       O -7.08940e+01 -3.63997e+01  5.35463e+01             
       H -7.01980e+01 -3.64817e+01  5.28291e+01             
       H -7.15352e+01 -2.79507e+01  6.46510e+01             
       O -8.68052e+01 -1.78376e+01  5.81474e+01             
       H -8.63462e+01 -1.74566e+01  5.73326e+01             
       H -8.61747e+01 -1.84968e+01  5.83821e+01             
       O -6.58183e+01 -2.87956e+01  6.28351e+01             
       H -6.56940e+01 -2.81970e+01  6.35599e+01             
       H -6.49912e+01 -2.93037e+01  6.26107e+01             
       O -7.56369e+01 -1.11402e+01  7.11723e+01             
       H -7.50309e+01 -1.19175e+01  7.09917e+01             
       H -7.51971e+01 -1.04446e+01  7.06106e+01             
       O -7.80668e+01 -1.13235e+01  4.92982e+01             
       H -7.72977e+01 -2.31419e+01  4.93149e+01             
       H -7.77715e+01 -1.21058e+01  4.98087e+01             
       O -7.75593e+01 -2.81580e+01  4.50417e+01             
       H -7.70087e+01 -2.82435e+01  4.58819e+01             
       H -7.72194e+01 -2.85383e+01  4.42434e+01             
       O -8.61067e+01 -1.38058e+01  5.80920e+01             
       H -8.59882e+01 -1.40466e+01  5.90522e+01             
       H -8.52865e+01 -1.33536e+01  5.79393e+01             
       O -8.12954e+01  3.26012e-01  5.17362e+01             
       H -6.13848e+01 -2.25151e+01  5.69299e+01             
       H -8.11288e+01  1.05405e+00  5.11452e+01             
       O -6.88262e+01 -1.80271e+01  6.45627e+01             
       H -7.30895e+01 -2.17077e+01  6.27515e+01             
       H -8.06245e+01 -1.76747e+01  6.52466e+01             
       O -7.54543e+01 -3.78686e+01  5.57261e+01             
       H -7.47946e+01 -3.75136e+01  5.50963e+01             
       H -7.49612e+01 -3.83016e+01  5.64545e+01             
       O -8.41870e+01 -2.30765e+01  6.01897e+01             
       H -8.33676e+01 -2.26037e+01  6.02571e+01             
       H -8.39290e+01 -2.39917e+01  6.02398e+01             
       O -7.27279e+01 -4.48613e+01  5.84912e+01             
       H -7.23651e+01 -4.51001e+01  5.93397e+01             
       H -7.18987e+01 -4.48111e+01  7.03782e+01             
       O -7.60419e+01 -7.23684e+00  5.69168e+01             
       H -7.54379e+01 -8.07511e+00  5.68407e+01             
       H -7.54769e+01 -6.47601e+00  5.73045e+01             
       O -7.30451e+01 -2.53288e+01  6.66792e+01             
       H -7.22287e+01 -2.47947e+01  6.66988e+01             
       H -7.26780e+01 -2.62313e+01  6.65285e+01             
       O -7.85359e+01 -2.42585e+01  7.15036e+01             
       H -7.85620e+01 -2.42713e+01  7.24938e+01             
       H -7.76516e+01 -2.41392e+01  7.12182e+01             
       O -9.43835e+01 -2.11932e+01  5.51481e+01             
       H -9.34593e+01 -2.08989e+01  5.49195e+01             
       H -9.41952e+01 -2.21267e+01  5.52856e+01             
       O -6.94838e+01 -5.09088e+00  7.25856e+01             
       H -6.88629e+01 -5.10001e+00  7.17656e+01             
       H -6.88693e+01 -5.24547e+00  7.33273e+01             
       O -7.61447e+01 -1.76573e+01  4.95206e+01             
       H -7.57797e+01 -1.70148e+01  4.88636e+01             
       H -7.55280e+01 -1.79138e+01  3.78629e+01             
       O -7.10032e+01 -1.97211e+01  3.58990e+01             
       H -7.03043e+01 -2.04260e+01  3.56298e+01             
       H -8.29259e+01 -1.88914e+01  3.58588e+01             
       O -6.59175e+01 -1.98929e+01  3.33854e+01             
       H -6.51299e+01 -1.98831e+01  3.28154e+01             
       H -6.57263e+01 -2.00356e+01  3.43129e+01             
       O -7.02624e+01 -2.81284e+01  4.26538e+01             
       H -6.97286e+01 -2.89805e+01  4.28220e+01             
       H -6.95904e+01 -2.74082e+01  5.49120e+01             
       O -7.04987e+01 -1.54214e+01  4.62106e+01             
       H -7.55138e+01 -1.29447e+01  5.11215e+01             
       H -7.02504e+01 -1.61066e+01  4.68624e+01             
       O -7.10277e+01 -2.58933e+01  6.03180e+01             
       H -7.07450e+01 -2.65124e+01  5.95795e+01             
       H -7.04460e+01 -2.59839e+01  6.10732e+01             
       O -6.53238e+01 -1.99228e+01  4.85979e+01             
       H -6.47068e+01 -2.06908e+01  4.87514e+01             
       H -6.47565e+01 -1.91785e+01  4.87059e+01             
       O -7.03672e+01 -3.21211e+01  5.71689e+01             
       H -6.95917e+01 -3.19551e+01  5.77249e+01             
       H -7.01060e+01 -3.27867e+01  5.65180e+01             
       O -7.30179e+01 -3.41962e+00  6.88006e+01             
       H -7.20365e+01 -3.25939e+00  6.86592e+01             
       H -7.31470e+01 -2.68975e+00  6.93841e+01             
       O -7.30023e+01  2.99776e+00  7.88529e+01             
       H -7.29611e+01  3.94712e+00  7.91230e+01             
       H -7.21175e+01  2.59016e+00  7.89010e+01             
       O -7.21018e+01 -2.78820e+01  6.54635e+01             
       H -8.10244e+01 -2.19662e+01  4.70346e+01             
       H -7.14279e+01 -2.81367e+01  6.62012e+01             
       O -7.46847e+01 -1.85619e+01  6.39791e+01             
       H -6.97759e+01 -1.54530e+01  4.56514e+01             
       H -7.46608e+01 -1.80465e+01  6.47969e+01             
       O -7.07032e+01 -1.95599e+01  5.31510e+01             
       H -8.05604e+01 -1.21403e+01  5.23518e+01             
       H -6.99543e+01 -1.89293e+01  5.28717e+01             
       O -6.74844e+01 -3.03559e+01  5.78706e+01             
       H -7.93396e+01 -3.11917e+01  7.04047e+01             
       H -6.22255e+01 -9.94661e+00  6.59447e+01             
       O -1.04067e+02 -2.08454e+01  6.42645e+01             
       H -1.03081e+02 -2.07171e+01  6.41246e+01             
       H -1.04166e+02 -2.08164e+01  6.51882e+01             
       O -7.44066e+01 -3.42302e+01  5.72285e+01             
       H -7.37760e+01 -3.36654e+01  5.77429e+01             
       H -6.83193e+01 -1.82580e+01  6.37596e+01             
       O -7.62066e+01 -1.34036e+01  5.04968e+01             
       H -7.57055e+01 -1.35972e+01  4.96596e+01             
       H -9.19782e+01 -2.27794e+01  3.74546e+01             
       O -8.95694e+01 -2.30031e+01  5.54261e+01             
       H -8.89461e+01 -2.28764e+01  5.46575e+01             
       H -8.90988e+01 -2.35811e+01  5.60200e+01             
       O -6.70062e+01 -2.72525e+01  4.84841e+01             
       H -6.61925e+01 -2.76125e+01  4.89458e+01             
       H -6.67307e+01 -2.69821e+01  4.75266e+01             
       O -5.62732e+01 -3.02344e+01  5.53146e+01             
       H -5.59389e+01 -1.80486e+01  5.61609e+01             
       H -5.56347e+01 -2.97722e+01  5.47838e+01             
       O -6.97540e+01 -1.12959e+01  5.61339e+01             
       H -5.68833e+01 -1.10948e+01  5.69955e+01             
       H -6.93604e+01 -1.21811e+01  5.58149e+01             
       O -6.72655e+01 -1.93428e+00  5.78411e+01             
       H -7.03483e+01 -3.62688e+01  5.43476e+01             
       H -7.71460e+01 -2.55425e+00  5.31502e+01             
       O -8.48878e+01 -1.86801e+01  5.51834e+01             
       H -8.44573e+01 -1.89201e+01  5.59823e+01             
       H -8.42222e+01 -1.87998e+01  5.45176e+01             
       O -7.92802e+01 -8.70164e+00  4.24320e+01             
       H -7.86877e+01 -2.03290e+01  4.25011e+01             
       H -7.86726e+01 -9.40493e+00  4.28366e+01             
       O -8.52217e+01 -1.69665e+01  6.14686e+01             
       H -8.43237e+01 -1.67010e+01  6.18265e+01             
       H -8.50988e+01 -1.78675e+01  6.12687e+01             
       O -7.41579e+01 -1.67665e+01  6.62046e+01             
       H -7.33786e+01 -1.63180e+01  6.57871e+01             
       H -7.36287e+01 -1.72710e+01  6.69303e+01             
       O -8.58684e+01 -2.25284e+01  4.99336e+01             
       H -8.53232e+01 -2.27452e+01  6.15980e+01             
       H -7.92437e+01 -4.20729e+01  4.53985e+01             
       O -6.66622e+01 -2.48030e+01  6.59650e+01             
       H -6.60727e+01 -2.41872e+01  6.64843e+01             
       H -6.61792e+01 -2.55478e+01  6.56517e+01             
       O -7.23477e+01 -2.38854e+01  5.72378e+01             
       H -7.14872e+01 -2.38658e+01  5.67339e+01             
       H -7.21995e+01 -2.34381e+01  5.80995e+01             
       O -9.53715e+01 -2.84207e+01  6.32137e+01             
       H -9.46325e+01 -2.77611e+01  6.29921e+01             
       H -9.49515e+01 -2.91127e+01  6.37889e+01             
       O -6.83839e+01 -2.58628e+01  5.56050e+01             
       H -6.76922e+01 -2.55228e+01  5.49751e+01             
       H -6.77970e+01 -2.61574e+01  5.63673e+01             
       O -8.87726e+01 -1.53622e+01  2.96795e+01             
       H -8.86435e+01 -1.45378e+01  3.01992e+01             
       H -8.79086e+01 -1.58223e+01  2.94773e+01             
       O -8.04239e+01 -2.23996e+01  3.75748e+01             
       H -5.39914e+01 -1.49003e+01  4.52960e+01             
       H -8.01828e+01 -2.15759e+01  3.80957e+01             
       O -8.01531e+01 -1.82748e+01  6.22913e+01             
       H -7.94582e+01 -1.76153e+01  6.24210e+01             
       H -7.96020e+01 -1.89320e+01  6.17503e+01             
       O -8.47335e+01 -1.99085e+01  7.57671e+01             
       H -8.42463e+01 -1.98844e+01  7.49471e+01             
       H -8.40594e+01 -1.99236e+01  7.65019e+01             
