192                                                         
# CELL(abcABC):   12.41850    12.41850    12.41850    90.00000    90.00000    90.00000  Step:           0  Bead:       0 x_centroid{angstrom}  cell{angstrom}   
       O -7.21343e+01 -9.24132e+00  6.16373e+01             
       H -7.13131e+01 -9.23064e+00  6.10938e+01             
       H -7.20041e+01 -8.46601e+00  6.21978e+01             
       O -6.33855e+01 -6.44495e+00  6.09698e+01             
       H -6.08273e+01 -1.70952e+01  5.51155e+01             
       H -6.26636e+01 -6.75413e+00  6.03925e+01             
       O -6.71129e+01 -2.45043e+01  4.55787e+01             
       H -6.62935e+01 -1.25580e+01  4.56790e+01             
       H -6.70117e+01 -2.35428e+01  4.58007e+01             
       O -6.23296e+01 -2.37647e+01  5.10596e+01             
       H -6.15284e+01 -2.38997e+01  5.04795e+01             
       H -6.19548e+01 -2.40809e+01  5.18853e+01             
       O -5.03701e+01 -1.97080e+01  5.29506e+01             
       H -4.97507e+01 -1.99554e+01  5.36636e+01             
       H -4.97801e+01 -1.91586e+01  5.23629e+01             
       O -5.30732e+01 -1.77155e+01  6.34334e+01             
       H -5.22881e+01 -1.74770e+01  6.29594e+01             
       H -5.28670e+01 -1.76985e+01  6.43504e+01             
       O -6.76887e+01 -1.94125e+01  4.19160e+01             
       H -6.70417e+01 -1.87609e+01  4.17158e+01             
       H -5.26094e+01  2.29261e+00  5.20810e+01             
       O -5.14566e+01 -1.61863e+01  6.81630e+01             
       H -5.18375e+01 -1.53821e+01  6.78205e+01             
       H -5.06589e+01 -2.87101e+01  6.76034e+01             
       O -7.13257e+01 -1.02069e+01  4.35263e+01             
       H -7.04891e+01 -9.73985e+00  4.33486e+01             
       H -7.13304e+01 -1.10115e+01  4.30126e+01             
       O -6.56619e+01 -2.58236e+01  4.89192e+01             
       H -6.50733e+01 -2.64375e+01  4.83640e+01             
       H -6.52607e+01 -2.49919e+01  4.85797e+01             
       O -7.11875e+01 -6.91593e+00  5.90057e+01             
       H -7.05703e+01 -6.77573e+00  5.97712e+01             
       H -7.08074e+01 -6.39442e+00  5.82211e+01             
       O -6.68785e+01 -9.66157e+00  4.70410e+01             
       H -6.68427e+01 -8.75575e+00  4.67801e+01             
       H -5.16054e+01 -1.31772e+01  4.25106e+01             
       O -6.11579e+01 -3.03086e+01  4.70063e+01             
       H -6.03160e+01 -3.08382e+01  4.69771e+01             
       H -5.92908e+01 -2.65030e+01  5.69799e+01             
       O -7.16838e+01 -1.54899e+01  5.08484e+01             
       H -7.12358e+01 -1.46788e+01  5.06179e+01             
       H -7.09867e+01 -1.61210e+01  5.12719e+01             
       O -5.06349e+01 -2.42605e+01  5.57297e+01             
       H -5.04785e+01 -2.33759e+01  5.60981e+01             
       H -4.99145e+01 -2.44861e+01  5.51559e+01             
       O -6.45649e+01 -1.09170e+01  6.00445e+01             
       H -6.45687e+01 -1.03215e+01  6.08133e+01             
       H -6.36396e+01 -1.11406e+01  5.97724e+01             
       O -6.57933e+01 -9.10326e+00  4.23633e+01             
       H -6.48947e+01 -2.14603e+01  4.28197e+01             
       H -6.57171e+01 -9.84843e+00  4.17444e+01             
       O -6.44162e+01 -2.52466e+01  3.90628e+01             
       H -6.36415e+01 -2.47376e+01  3.87653e+01             
       H -6.48083e+01 -2.56948e+01  3.82961e+01             
       O -7.24069e+01 -1.18621e+01  4.95440e+01             
       H -7.21503e+01 -1.08780e+01  4.94489e+01             
       H -7.16003e+01 -1.22739e+01  4.99108e+01             
       O -6.79413e+01  6.02240e+00  4.47252e+01             
       H -4.48332e+01 -1.76028e+01  4.87913e+01             
       H -6.76849e+01  6.05394e+00  4.37751e+01             
       O -5.86011e+01 -1.33958e+01  5.82753e+01             
       H -6.07406e+01 -2.14145e+01  5.54157e+01             
       H -7.00665e+01 -1.35535e+01  5.79583e+01             
       O -6.16651e+01 -3.06340e+01  5.10319e+01             
       H -6.17500e+01 -2.96765e+01  5.09170e+01             
       H -6.07308e+01 -3.09295e+01  5.08605e+01             
       O -7.01409e+01 -1.75301e+01  5.74562e+01             
       H -6.92500e+01 -1.78790e+01  5.71904e+01             
       H -7.00295e+01 -1.66328e+01  5.72141e+01             
       O -5.69703e+01 -4.18692e+01  5.17998e+01             
       H -5.62127e+01 -4.13916e+01  5.14560e+01             
       H -5.66757e+01 -4.27901e+01  6.43799e+01             
       O -6.30272e+01 -2.44448e+00  4.74588e+01             
       H -6.31109e+01 -3.34706e+00  4.72118e+01             
       H -6.20867e+01 -2.28924e+00  4.75682e+01             
       O -5.93706e+01 -2.34071e+01  5.85861e+01             
       H -5.90199e+01 -2.29239e+01  5.92990e+01             
       H -5.90642e+01 -2.30327e+01  5.77644e+01             
       O -6.38068e+01 -2.15857e+01  6.37836e+01             
       H -6.33711e+01 -2.08861e+01  6.42541e+01             
       H -6.30832e+01 -2.22703e+01  6.36928e+01             
       O -7.99161e+01 -1.96287e+01  4.98995e+01             
       H -7.92072e+01 -2.02827e+01  4.95317e+01             
       H -7.93392e+01 -1.90616e+01  5.04413e+01             
       O -5.53123e+01 -8.46423e-01  6.39069e+01             
       H -5.48165e+01 -1.55316e-01  6.34426e+01             
       H -5.51428e+01 -1.62698e+00  6.33572e+01             
       O -6.14689e+01 -1.23022e+01  4.10744e+01             
       H -6.15062e+01 -1.32158e+01  4.08357e+01             
       H -6.04817e+01 -1.21761e+01  2.86926e+01             
       O -5.69738e+01 -1.45590e+01  2.89743e+01             
       H -5.70318e+01 -1.54352e+01  2.85820e+01             
       H -6.85008e+01 -1.42320e+01  2.89809e+01             
       O -5.06610e+01 -1.58295e+01  2.57707e+01             
       H -5.05946e+01 -1.51798e+01  2.50370e+01             
       H -5.01750e+01 -1.55306e+01  2.65447e+01             
       O -5.74410e+01 -2.21929e+01  3.56100e+01             
       H -5.66610e+01 -2.19771e+01  3.50664e+01             
       H -5.70398e+01 -2.29107e+01  4.85859e+01             
       O -5.77260e+01 -1.31991e+01  3.76863e+01             
       H -6.33462e+01 -9.32468e+00  4.52859e+01             
       H -5.69787e+01 -1.31201e+01  3.83349e+01             
       O -5.88003e+01 -2.47205e+01  5.34818e+01             
       H -5.84484e+01 -2.56048e+01  5.36636e+01             
       H -5.79605e+01 -2.42173e+01  5.34495e+01             
       O -4.89038e+01 -1.49032e+01  4.02284e+01             
       H -4.88246e+01 -1.54529e+01  4.10264e+01             
       H -4.81136e+01 -1.49148e+01  3.96035e+01             
       O -5.34521e+01 -2.90638e+01  4.77575e+01             
       H -5.27001e+01 -2.93583e+01  4.82985e+01             
       H -5.32037e+01 -2.89557e+01  4.68724e+01             
       O -6.02024e+01 -2.50792e+00  6.00419e+01             
       H -5.95814e+01 -2.15541e+00  5.93790e+01             
       H -5.96126e+01 -2.87580e+00  6.06469e+01             
       O -5.37037e+01  9.17940e+00  7.00507e+01             
       H -5.32651e+01  8.77397e+00  6.92902e+01             
       H -5.30587e+01  9.87452e+00  7.00694e+01             
       O -5.94993e+01 -2.66940e+01  5.60411e+01             
       H -6.71355e+01 -2.02005e+01  4.19856e+01             
       H -5.86439e+01 -2.68129e+01  5.55657e+01             
       O -6.13885e+01 -1.62977e+01  5.49656e+01             
       H -5.72789e+01 -1.35737e+01  3.68886e+01             
       H -6.09621e+01 -1.55815e+01  5.55594e+01             
       O -5.21836e+01 -1.37963e+01  4.21290e+01             
       H -6.71361e+01 -6.20161e+00  4.52318e+01             
       H -5.20018e+01 -1.39596e+01  4.11503e+01             
       O -5.50292e+01 -2.82267e+01  5.03551e+01             
       H -6.65999e+01 -2.87051e+01  6.29710e+01             
       H -5.04984e+01 -6.52299e+00  6.17920e+01             
       O -8.92644e+01 -1.35097e+01  5.75491e+01             
       H -8.86562e+01 -1.29194e+01  5.70333e+01             
       H -8.86495e+01 -1.37785e+01  5.82538e+01             
       O -5.71990e+01 -3.09802e+01  4.87984e+01             
       H -5.64329e+01 -3.13098e+01  4.92544e+01             
       H -5.87428e+01 -1.24650e+01  5.83462e+01             
       O -6.34025e+01 -9.28614e+00  4.42973e+01             
       H -6.26165e+01 -8.72722e+00  4.40898e+01             
       H -7.70462e+01 -1.86114e+01  2.89314e+01             
       O -7.39434e+01 -2.06501e+01  4.70622e+01             
       H -7.30084e+01 -2.05247e+01  4.68357e+01             
       H -7.38635e+01 -2.11170e+01  4.79295e+01             
       O -5.65852e+01 -2.34103e+01  4.13508e+01             
       H -5.62651e+01 -2.29762e+01  4.05521e+01             
       H -5.59115e+01 -2.40593e+01  4.15776e+01             
       O -4.33678e+01 -2.62024e+01  4.79198e+01             
       H -4.24603e+01 -1.39226e+01  4.83113e+01             
       H -4.32297e+01 -2.56572e+01  4.71071e+01             
       O -5.76614e+01 -7.43796e+00  5.32309e+01             
       H -4.52455e+01 -8.40570e+00  5.32805e+01             
       H -5.67766e+01 -7.28780e+00  5.36587e+01             
       O -5.33936e+01  1.76502e+00  5.23089e+01             
       H -6.08895e+01 -2.94600e+01  4.74009e+01             
       H -6.59919e+01  2.71095e+00  4.74519e+01             
       O -6.97293e+01 -1.60384e+01  4.78577e+01             
       H -6.92362e+01 -1.51891e+01  4.78737e+01             
       H -6.98182e+01 -1.62025e+01  4.69308e+01             
       O -6.55779e+01 -6.74351e+00  3.37497e+01             
       H -6.48681e+01 -1.85259e+01  3.35124e+01             
       H -6.59499e+01 -6.34598e+00  3.45148e+01             
       O -7.22274e+01 -1.83895e+01  5.54456e+01             
       H -7.17717e+01 -1.79299e+01  5.61857e+01             
       H -7.15253e+01 -1.87226e+01  5.48823e+01             
       O -6.36464e+01 -1.74914e+01  5.83100e+01             
       H -6.34107e+01 -1.70932e+01  5.74421e+01             
       H -6.27174e+01 -1.77947e+01  5.86862e+01             
       O -7.38024e+01 -2.06967e+01  4.29602e+01             
       H -7.33051e+01 -1.98642e+01  5.53456e+01             
       H -6.76165e+01 -4.06977e+01  3.69806e+01             
       O -5.25177e+01 -2.10090e+01  6.16346e+01             
       H -5.19521e+01 -2.03076e+01  6.11914e+01             
       H -5.20827e+01 -2.11750e+01  6.25016e+01             
       O -5.91430e+01 -1.94540e+01  5.07109e+01             
       H -5.87231e+01 -1.95913e+01  5.15838e+01             
       H -5.84095e+01 -1.91958e+01  5.01106e+01             
       O -8.12270e+01 -2.15825e+01  5.63029e+01             
       H -8.08541e+01 -2.08626e+01  5.67494e+01             
       H -8.03948e+01 -2.19089e+01  5.59023e+01             
       O -5.57781e+01 -2.24791e+01  5.10106e+01             
       H -5.57481e+01 -2.15313e+01  5.07581e+01             
       H -5.49150e+01 -2.26145e+01  5.14355e+01             
       O -7.44753e+01 -1.16532e+01  2.21777e+01             
       H -7.40080e+01 -1.10497e+01  2.15400e+01             
       H -7.38648e+01 -1.18083e+01  2.28786e+01             
       O -6.53711e+01 -1.79845e+01  2.90582e+01             
       H -4.05982e+01 -1.15168e+01  3.96501e+01             
       H -6.49787e+01 -1.74614e+01  2.97144e+01             
       O -6.72164e+01 -1.28904e+01  5.51144e+01             
       H -6.73253e+01 -1.26102e+01  5.60314e+01             
       H -6.63584e+01 -1.33817e+01  5.50691e+01             
       O -6.88260e+01 -1.48358e+01  6.96103e+01             
       H -6.88527e+01 -1.47778e+01  6.86224e+01             
       H -6.79009e+01 -1.50399e+01  6.97696e+01             
192                                                         
# CELL(abcABC):   12.41850    12.41850    12.41850    90.00000    90.00000    90.00000  Step:      200000  Bead:       0 x_centroid{angstrom}  cell{angstrom}   
       O -8.37092e+01 -9.39159e+00  6.73639e+01             
       H -8.31863e+01 -9.86854e+00  6.67084e+01             
       H -8.30041e+01 -8.93599e+00  6.78530e+01             
       O -7.49201e+01 -1.04835e+01  6.57106e+01             
       H -6.95186e+01 -1.99184e+01  5.80624e+01             
       H -7.43446e+01 -1.13017e+01  6.56270e+01             
       O -7.58461e+01 -2.87225e+01  5.08064e+01             
       H -7.49455e+01 -1.65532e+01  5.03922e+01             
       H -7.56486e+01 -2.83543e+01  5.17091e+01             
       O -7.42772e+01 -2.67194e+01  5.78257e+01             
       H -7.34457e+01 -2.66378e+01  5.72197e+01             
       H -7.39141e+01 -2.73108e+01  5.85840e+01             
       O -6.22932e+01 -2.01300e+01  5.91529e+01             
       H -6.13724e+01 -2.00822e+01  5.95788e+01             
       H -6.22218e+01 -1.96536e+01  5.82450e+01             
       O -6.58459e+01 -2.05702e+01  6.87159e+01             
       H -6.52082e+01 -1.99993e+01  6.82964e+01             
       H -6.53906e+01 -2.10273e+01  6.93997e+01             
       O -8.12586e+01 -2.18093e+01  4.88860e+01             
       H -8.03563e+01 -2.19815e+01  4.88075e+01             
       H -6.64558e+01 -3.07912e+00  5.79621e+01             
       O -6.55721e+01 -1.85279e+01  7.45992e+01             
       H -6.49177e+01 -1.91567e+01  7.42081e+01             
       H -6.51280e+01 -3.00335e+01  7.45568e+01             
       O -8.43587e+01 -1.23962e+01  5.11463e+01             
       H -8.38589e+01 -1.14743e+01  5.11384e+01             
       H -8.35809e+01 -1.30098e+01  5.10652e+01             
       O -7.29509e+01 -2.97157e+01  5.31442e+01             
       H -7.21900e+01 -2.96621e+01  5.37451e+01             
       H -7.26537e+01 -2.93210e+01  5.22951e+01             
       O -8.15913e+01 -1.07923e+01  6.57424e+01             
       H -8.09043e+01 -1.00938e+01  6.58363e+01             
       H -8.10541e+01 -1.16656e+01  6.58463e+01             
       O -7.81641e+01 -1.45430e+01  5.40645e+01             
       H -7.73554e+01 -1.46292e+01  5.35182e+01             
       H -6.36648e+01 -2.18670e+01  4.63363e+01             
       O -7.35924e+01 -3.25539e+01  5.45048e+01             
       H -7.28423e+01 -3.31563e+01  5.46762e+01             
       H -7.08374e+01 -2.80846e+01  6.34797e+01             
       O -8.35135e+01 -1.72382e+01  5.53894e+01             
       H -8.29874e+01 -1.64684e+01  5.50305e+01             
       H -8.28223e+01 -1.79376e+01  5.53900e+01             
       O -6.47886e+01 -3.05416e+01  5.84525e+01             
       H -6.44946e+01 -3.00784e+01  5.76869e+01             
       H -6.39943e+01 -3.09495e+01  5.88921e+01             
       O -7.53259e+01 -1.52004e+01  6.55880e+01             
       H -7.45870e+01 -1.58422e+01  6.58272e+01             
       H -7.47944e+01 -1.43567e+01  6.55114e+01             
       O -7.71427e+01 -1.47726e+01  4.91142e+01             
       H -7.64035e+01 -2.67044e+01  4.86213e+01             
       H -7.65799e+01 -1.54150e+01  4.98116e+01             
       O -7.64466e+01 -2.76138e+01  4.36550e+01             
       H -7.56447e+01 -2.75923e+01  4.41902e+01             
       H -7.61526e+01 -2.78212e+01  4.27961e+01             
       O -8.47287e+01 -1.37379e+01  5.58805e+01             
       H -8.46357e+01 -1.28075e+01  5.62160e+01             
       H -8.38106e+01 -1.40154e+01  5.56588e+01             
       O -7.95505e+01  3.51721e+00  5.39373e+01             
       H -5.60988e+01 -2.13247e+01  5.70423e+01             
       H -7.89838e+01  3.35947e+00  5.47287e+01             
       O -6.98103e+01 -1.41950e+01  6.34948e+01             
       H -7.08183e+01 -2.31616e+01  5.97815e+01             
       H -8.20020e+01 -1.40277e+01  6.25904e+01             
       O -7.24436e+01 -3.59753e+01  5.68643e+01             
       H -7.21319e+01 -3.58327e+01  5.77507e+01             
       H -7.19850e+01 -3.52843e+01  5.63346e+01             
       O -8.20791e+01 -1.87592e+01  6.41456e+01             
       H -8.13063e+01 -1.87165e+01  6.35639e+01             
       H -8.17237e+01 -1.87953e+01  6.50879e+01             
       O -6.88163e+01 -4.23662e+01  5.71915e+01             
       H -6.80746e+01 -4.29558e+01  5.73358e+01             
       H -6.83696e+01 -4.16016e+01  6.91504e+01             
       O -7.61311e+01 -7.78838e+00  4.89044e+01             
       H -7.53277e+01 -7.78149e+00  4.95112e+01             
       H -7.57411e+01 -7.69062e+00  4.80119e+01             
       O -6.78910e+01 -2.57082e+01  6.53633e+01             
       H -6.72687e+01 -2.63929e+01  6.57146e+01             
       H -6.72951e+01 -2.54098e+01  6.45981e+01             
       O -7.50041e+01 -2.39249e+01  6.91247e+01             
       H -7.40546e+01 -2.37024e+01  6.90640e+01             
       H -7.50010e+01 -2.48069e+01  6.93958e+01             
       O -9.05477e+01 -2.42690e+01  6.00905e+01             
       H -8.97936e+01 -2.48860e+01  6.03547e+01             
       H -9.00540e+01 -2.38316e+01  5.93702e+01             
       O -6.85498e+01 -1.03571e+00  6.91720e+01             
       H -6.80882e+01 -1.98003e-01  6.90448e+01             
       H -6.78629e+01 -1.66238e+00  6.93647e+01             
       O -7.29235e+01 -1.57651e+01  4.72754e+01             
       H -7.22780e+01 -1.51206e+01  4.76120e+01             
       H -7.23756e+01 -1.64019e+01  3.43186e+01             
       O -6.88577e+01 -1.63714e+01  3.53622e+01             
       H -6.91514e+01 -1.65896e+01  3.44905e+01             
       H -8.02603e+01 -1.63843e+01  3.51983e+01             
       O -6.16838e+01 -1.87777e+01  3.20097e+01             
       H -6.13383e+01 -1.92107e+01  3.12542e+01             
       H -6.08950e+01 -1.82342e+01  3.22337e+01             
       O -6.71044e+01 -2.36436e+01  4.40667e+01             
       H -6.68759e+01 -2.30836e+01  4.47923e+01             
       H -6.63476e+01 -2.38089e+01  5.58921e+01             
       O -6.97620e+01 -1.47700e+01  4.24606e+01             
       H -7.48728e+01 -1.26631e+01  4.81504e+01             
       H -6.91413e+01 -1.42824e+01  4.31033e+01             
       O -7.07288e+01 -2.67147e+01  6.06794e+01             
       H -7.01333e+01 -2.75016e+01  6.06252e+01             
       H -7.02161e+01 -2.60846e+01  6.01791e+01             
       O -5.93238e+01 -1.76104e+01  4.56467e+01             
       H -5.86903e+01 -1.82053e+01  4.60131e+01             
       H -5.88369e+01 -1.72361e+01  4.49208e+01             
       O -6.18228e+01 -3.28817e+01  5.11567e+01             
       H -6.09025e+01 -3.28200e+01  5.08921e+01             
       H -6.19663e+01 -3.36009e+01  5.17452e+01             
       O -6.86951e+01 -6.55719e+00  6.67772e+01             
       H -6.80725e+01 -7.31226e+00  6.67004e+01             
       H -6.80707e+01 -5.85472e+00  6.70209e+01             
       O -6.82897e+01  5.66994e+00  7.42783e+01             
       H -6.84781e+01  6.46260e+00  7.37336e+01             
       H -6.72968e+01  5.71057e+00  7.42983e+01             
       O -7.13447e+01 -2.88694e+01  6.34781e+01             
       H -8.11336e+01 -2.08176e+01  4.90793e+01             
       H -7.07171e+01 -2.95364e+01  6.39190e+01             
       O -6.97155e+01 -1.95521e+01  5.89946e+01             
       H -6.95193e+01 -1.44241e+01  4.16254e+01             
       H -6.90137e+01 -1.99886e+01  5.94854e+01             
       O -6.43127e+01 -2.24520e+01  4.59350e+01             
       H -7.86995e+01 -8.89520e+00  5.33377e+01             
       H -6.37325e+01 -2.30271e+01  4.52996e+01             
       O -6.64700e+01 -2.97506e+01  5.50492e+01             
       H -7.87051e+01 -2.88934e+01  6.70040e+01             
       H -6.23126e+01 -1.01207e+01  6.65725e+01             
       O -9.84536e+01 -1.71089e+01  6.19307e+01             
       H -9.76121e+01 -1.69762e+01  6.24453e+01             
       H -9.81141e+01 -1.67224e+01  6.10809e+01             
       O -6.91311e+01 -3.31836e+01  5.65850e+01             
       H -6.85652e+01 -3.27046e+01  5.59874e+01             
       H -6.90717e+01 -1.40942e+01  6.41121e+01             
       O -7.56528e+01 -1.30389e+01  4.76074e+01             
       H -7.51944e+01 -1.34015e+01  4.67723e+01             
       H -9.08108e+01 -2.28696e+01  3.59891e+01             
       O -8.61048e+01 -2.41309e+01  4.89965e+01             
       H -8.54844e+01 -2.36530e+01  4.83736e+01             
       H -8.55177e+01 -2.45487e+01  4.96447e+01             
       O -6.80221e+01 -2.59313e+01  4.90437e+01             
       H -6.76164e+01 -2.67145e+01  4.86546e+01             
       H -6.74077e+01 -2.55529e+01  4.96207e+01             
       O -5.13819e+01 -3.14171e+01  5.20041e+01             
       H -5.05404e+01 -1.93194e+01  5.17130e+01             
       H -5.16261e+01 -3.06928e+01  5.14228e+01             
       O -6.75566e+01 -9.55683e+00  5.86364e+01             
       H -5.46003e+01 -9.31400e+00  5.94426e+01             
       H -6.81879e+01 -1.02643e+01  5.89891e+01             
       O -6.69108e+01 -2.93052e+00  5.71016e+01             
       H -7.31844e+01 -3.18578e+01  5.39190e+01             
       H -7.79791e+01 -1.29579e+00  5.45342e+01             
       O -7.66248e+01 -1.87082e+01  5.46481e+01             
       H -7.58770e+01 -1.86852e+01  5.52050e+01             
       H -7.63748e+01 -1.88447e+01  5.37046e+01             
       O -7.57847e+01 -1.11103e+01  3.80949e+01             
       H -7.52050e+01 -2.34645e+01  3.72689e+01             
       H -7.55174e+01 -1.05076e+01  3.87673e+01             
       O -8.45061e+01 -2.02512e+01  6.02181e+01             
       H -8.43116e+01 -2.01731e+01  6.12315e+01             
       H -8.36394e+01 -1.99737e+01  5.97534e+01             
       O -7.15796e+01 -2.03632e+01  6.28371e+01             
       H -7.11244e+01 -1.97403e+01  6.34008e+01             
       H -7.11038e+01 -2.12156e+01  6.30893e+01             
       O -8.41156e+01 -2.29006e+01  4.69858e+01             
       H -8.41881e+01 -2.19551e+01  5.97829e+01             
       H -7.80422e+01 -4.26366e+01  4.24429e+01             
       O -6.48557e+01 -2.42071e+01  6.71655e+01             
       H -6.46297e+01 -2.36304e+01  6.64734e+01             
       H -6.40450e+01 -2.43232e+01  6.77095e+01             
       O -6.92266e+01 -2.45412e+01  5.93386e+01             
       H -6.85158e+01 -2.48829e+01  5.98319e+01             
       H -6.91019e+01 -2.48353e+01  5.84063e+01             
       O -9.51945e+01 -2.28173e+01  6.33453e+01             
       H -9.48924e+01 -2.29284e+01  6.43292e+01             
       H -9.44932e+01 -2.26340e+01  6.27382e+01             
       O -6.60912e+01 -2.53533e+01  6.31895e+01             
       H -6.54746e+01 -2.45601e+01  6.31325e+01             
       H -6.55047e+01 -2.60695e+01  6.28397e+01             
       O -8.60387e+01 -1.29552e+01  2.83146e+01             
       H -8.53215e+01 -1.28557e+01  2.75812e+01             
       H -8.55342e+01 -1.31256e+01  2.90942e+01             
       O -7.85165e+01 -2.19625e+01  3.63951e+01             
       H -5.37475e+01 -1.52943e+01  4.41508e+01             
       H -7.76343e+01 -2.15227e+01  3.62664e+01             
       O -7.87183e+01 -1.63603e+01  5.98353e+01             
       H -7.81284e+01 -1.58394e+01  6.04026e+01             
       H -7.81489e+01 -1.71288e+01  5.95244e+01             
       O -7.79157e+01 -2.12463e+01  7.67017e+01             
       H -7.73623e+01 -2.04528e+01  7.65691e+01             
       H -7.82577e+01 -2.16445e+01  7.58612e+01             
