192                                                         
# CELL(abcABC):   12.41850    12.41850    12.41850    90.00000    90.00000    90.00000  Step:           0  Bead:       0 x_centroid{angstrom}  cell{angstrom}   
       O -7.25201e+01 -8.83471e+00  6.13934e+01             
       H -7.21649e+01 -9.70395e+00  6.11097e+01             
       H -7.18253e+01 -8.26248e+00  6.16301e+01             
       O -6.41742e+01 -6.68115e+00  6.14527e+01             
       H -6.18957e+01 -1.67689e+01  5.44255e+01             
       H -6.38543e+01 -5.98405e+00  6.20842e+01             
       O -6.77301e+01 -2.56006e+01  4.61170e+01             
       H -6.68088e+01 -1.35180e+01  4.59859e+01             
       H -6.75583e+01 -2.47083e+01  4.64444e+01             
       O -6.32940e+01 -2.42997e+01  5.09410e+01             
       H -6.27030e+01 -2.35807e+01  5.12346e+01             
       H -6.26763e+01 -2.50769e+01  5.10609e+01             
       O -5.12735e+01 -2.00937e+01  5.31860e+01             
       H -5.09969e+01 -2.04764e+01  5.40170e+01             
       H -5.05463e+01 -2.00060e+01  5.25294e+01             
       O -5.37932e+01 -1.71437e+01  6.39779e+01             
       H -5.30100e+01 -1.67151e+01  6.35020e+01             
       H -5.33884e+01 -1.75921e+01  6.47115e+01             
       O -6.76422e+01 -1.98327e+01  4.29587e+01             
       H -6.71859e+01 -1.93689e+01  4.22982e+01             
       H -5.38889e+01  1.52568e+00  5.23496e+01             
       O -5.28586e+01 -1.65512e+01  6.80160e+01             
       H -5.32058e+01 -1.56902e+01  6.77313e+01             
       H -5.19380e+01 -2.88215e+01  6.77576e+01             
       O -7.37715e+01 -1.03019e+01  4.40605e+01             
       H -7.28402e+01 -1.02687e+01  4.43611e+01             
       H -7.37523e+01 -1.08280e+01  4.32242e+01             
       O -6.65477e+01 -2.63254e+01  4.98169e+01             
       H -6.61092e+01 -2.71728e+01  4.97226e+01             
       H -6.60348e+01 -2.57009e+01  4.93569e+01             
       O -7.10694e+01 -8.03771e+00  5.86409e+01             
       H -7.05201e+01 -7.52316e+00  5.80130e+01             
       H -7.06161e+01 -7.96791e+00  5.94703e+01             
       O -6.70136e+01 -1.05535e+01  4.76629e+01             
       H -6.69155e+01 -9.68581e+00  4.72653e+01             
       H -5.26018e+01 -1.35719e+01  4.33079e+01             
       O -6.03968e+01 -2.99504e+01  4.67006e+01             
       H -6.00814e+01 -3.03766e+01  4.59329e+01             
       H -6.07427e+01 -2.61440e+01  5.62193e+01             
       O -7.23565e+01 -1.43077e+01  4.99754e+01             
       H -7.16999e+01 -1.36361e+01  5.02471e+01             
       H -7.19417e+01 -1.51926e+01  5.01986e+01             
       O -5.13083e+01 -2.47977e+01  5.68722e+01             
       H -5.09479e+01 -2.49714e+01  5.77657e+01             
       H -5.05614e+01 -2.42719e+01  5.65306e+01             
       O -6.50470e+01 -1.18199e+01  6.13582e+01             
       H -6.44314e+01 -1.17428e+01  6.21309e+01             
       H -6.43524e+01 -1.20313e+01  6.06955e+01             
       O -6.59090e+01 -9.56842e+00  4.40785e+01             
       H -6.54011e+01 -2.26065e+01  4.35704e+01             
       H -6.53700e+01 -9.41862e+00  4.48551e+01             
       O -6.55801e+01 -2.59287e+01  4.00946e+01             
       H -6.47253e+01 -2.55444e+01  3.99626e+01             
       H -6.58234e+01 -2.60532e+01  3.91681e+01             
       O -7.42374e+01 -9.29244e+00  5.14462e+01             
       H -7.34567e+01 -9.64362e+00  5.19325e+01             
       H -7.38617e+01 -8.72215e+00  5.07837e+01             
       O -6.81536e+01  5.91216e+00  4.55820e+01             
       H -4.45008e+01 -1.86621e+01  4.85038e+01             
       H -6.79959e+01  5.73336e+00  4.46672e+01             
       O -5.93460e+01 -1.35198e+01  5.75482e+01             
       H -6.21420e+01 -2.09651e+01  5.61908e+01             
       H -7.11577e+01 -1.42589e+01  5.73235e+01             
       O -6.16346e+01 -3.13008e+01  5.19390e+01             
       H -6.16701e+01 -3.02800e+01  5.19375e+01             
       H -6.09400e+01 -3.14320e+01  5.12931e+01             
       O -7.04790e+01 -1.86691e+01  5.59418e+01             
       H -6.97482e+01 -1.92358e+01  5.55429e+01             
       H -7.01365e+01 -1.77481e+01  5.60255e+01             
       O -5.87566e+01 -4.11105e+01  5.11845e+01             
       H -5.89169e+01 -4.20561e+01  5.11690e+01             
       H -5.77571e+01 -4.10362e+01  6.35199e+01             
       O -6.32381e+01 -3.49720e+00  4.69646e+01             
       H -6.30340e+01 -4.28227e+00  4.64753e+01             
       H -6.23443e+01 -3.20853e+00  4.71001e+01             
       O -5.95091e+01 -2.37815e+01  6.03224e+01             
       H -5.86361e+01 -2.38216e+01  6.07688e+01             
       H -5.91637e+01 -2.36622e+01  5.94342e+01             
       O -6.47530e+01 -2.30858e+01  6.59695e+01             
       H -6.43328e+01 -2.22757e+01  6.57719e+01             
       H -6.39334e+01 -2.36111e+01  6.60656e+01             
       O -7.97172e+01 -1.93626e+01  5.03599e+01             
       H -7.90159e+01 -1.99389e+01  5.06822e+01             
       H -7.94694e+01 -1.84905e+01  5.07463e+01             
       O -5.62569e+01 -1.16427e+00  6.51048e+01             
       H -5.55858e+01 -4.51872e-01  6.51829e+01             
       H -5.59289e+01 -1.85492e+00  6.45490e+01             
       O -6.21008e+01 -1.17638e+01  4.17888e+01             
       H -6.19705e+01 -1.26728e+01  4.21023e+01             
       H -6.13584e+01 -1.16678e+01  2.87035e+01             
       O -5.88463e+01 -1.46872e+01  2.88918e+01             
       H -5.89606e+01 -1.54750e+01  2.83755e+01             
       H -7.03678e+01 -1.43727e+01  2.85952e+01             
       O -5.16942e+01 -1.59983e+01  2.55023e+01             
       H -5.18070e+01 -1.58877e+01  2.45608e+01             
       H -5.10228e+01 -1.53721e+01  2.57446e+01             
       O -5.70738e+01 -2.29980e+01  3.69043e+01             
       H -5.62440e+01 -2.29736e+01  3.63539e+01             
       H -5.69707e+01 -2.22035e+01  4.98689e+01             
       O -5.82743e+01 -1.23124e+01  3.85993e+01             
       H -6.30332e+01 -8.65311e+00  4.64560e+01             
       H -5.76310e+01 -1.27731e+01  3.91580e+01             
       O -5.98335e+01 -2.31357e+01  5.26516e+01             
       H -5.92362e+01 -2.36096e+01  5.19931e+01             
       H -5.91416e+01 -2.26650e+01  5.31678e+01             
       O -4.97383e+01 -1.42526e+01  3.89943e+01             
       H -4.98232e+01 -1.46688e+01  3.98807e+01             
       H -4.88043e+01 -1.43209e+01  3.85961e+01             
       O -5.41636e+01 -2.92106e+01  4.84170e+01             
       H -5.36484e+01 -3.00377e+01  4.84783e+01             
       H -5.43444e+01 -2.90762e+01  4.74685e+01             
       O -6.10866e+01 -1.93597e+00  5.99719e+01             
       H -6.04337e+01 -1.64616e+00  5.93053e+01             
       H -6.06480e+01 -2.01876e+00  6.08632e+01             
       O -5.54075e+01  8.65809e+00  7.04472e+01             
       H -5.54711e+01  7.61429e+00  7.04538e+01             
       H -5.44423e+01  8.93531e+00  7.03697e+01             
       O -6.10495e+01 -2.63823e+01  5.53280e+01             
       H -6.69877e+01 -2.05187e+01  4.31909e+01             
       H -6.02531e+01 -2.67215e+01  5.48535e+01             
       O -6.25279e+01 -1.60320e+01  5.43095e+01             
       H -5.76971e+01 -1.18454e+01  3.79822e+01             
       H -6.21917e+01 -1.52334e+01  5.48612e+01             
       O -5.33840e+01 -1.39114e+01  4.27374e+01             
       H -6.73409e+01 -6.81869e+00  4.60274e+01             
       H -5.32448e+01 -1.37551e+01  4.17756e+01             
       O -5.59992e+01 -2.84364e+01  5.12018e+01             
       H -6.75560e+01 -2.89206e+01  6.39480e+01             
       H -5.09153e+01 -6.82727e+00  6.09226e+01             
       O -9.02354e+01 -1.46398e+01  5.81184e+01             
       H -8.97332e+01 -1.46391e+01  5.72640e+01             
       H -8.94479e+01 -1.48397e+01  5.87067e+01             
       O -5.72501e+01 -3.18677e+01  4.89845e+01             
       H -5.64670e+01 -3.20813e+01  4.94564e+01             
       H -5.88403e+01 -1.26910e+01  5.75307e+01             
       O -6.33658e+01 -9.55796e+00  4.62733e+01             
       H -6.28059e+01 -9.89959e+00  4.55801e+01             
       H -7.73199e+01 -1.90608e+01  2.86726e+01             
       O -7.44531e+01 -1.97216e+01  4.75060e+01             
       H -7.38357e+01 -1.90322e+01  4.73086e+01             
       H -7.39223e+01 -2.03073e+01  4.81058e+01             
       O -5.66197e+01 -2.29142e+01  4.34082e+01             
       H -5.59715e+01 -2.23277e+01  4.38231e+01             
       H -5.62200e+01 -2.38198e+01  4.32410e+01             
       O -4.42941e+01 -2.64999e+01  4.83967e+01             
       H -4.35511e+01 -1.38514e+01  4.89311e+01             
       H -4.39098e+01 -2.64630e+01  4.74964e+01             
       O -5.80234e+01 -8.91838e+00  5.38711e+01             
       H -4.50465e+01 -9.43809e+00  5.44320e+01             
       H -5.76034e+01 -8.81621e+00  5.29850e+01             
       O -5.47794e+01  1.35506e+00  5.20559e+01             
       H -5.95718e+01 -2.95824e+01  4.70229e+01             
       H -6.61049e+01  1.76216e+00  4.80864e+01             
       O -7.00601e+01 -1.67133e+01  4.77456e+01             
       H -6.98223e+01 -1.58595e+01  4.81993e+01             
       H -6.94352e+01 -1.67256e+01  4.70326e+01             
       O -6.58943e+01 -7.67170e+00  3.45109e+01             
       H -6.51761e+01 -1.97484e+01  3.39553e+01             
       H -6.57865e+01 -7.32343e+00  3.53866e+01             
       O -7.29695e+01 -1.85473e+01  5.45434e+01             
       H -7.20949e+01 -1.85992e+01  5.49554e+01             
       H -7.28633e+01 -1.91506e+01  5.37712e+01             
       O -6.43750e+01 -1.86457e+01  5.75537e+01             
       H -6.47171e+01 -1.79928e+01  5.69363e+01             
       H -6.36599e+01 -1.91813e+01  5.71582e+01             
       O -7.48808e+01 -2.01073e+01  4.34116e+01             
       H -7.40618e+01 -1.96300e+01  5.56589e+01             
       H -6.81352e+01 -4.06831e+01  3.78934e+01             
       O -5.29746e+01 -2.10690e+01  6.30758e+01             
       H -5.25618e+01 -2.05549e+01  6.23579e+01             
       H -5.23123e+01 -2.12614e+01  6.37909e+01             
       O -5.90634e+01 -1.89696e+01  5.10222e+01             
       H -5.84735e+01 -1.93392e+01  5.16861e+01             
       H -5.83842e+01 -1.89770e+01  5.02520e+01             
       O -8.35367e+01 -2.29379e+01  5.74609e+01             
       H -8.34725e+01 -2.20000e+01  5.78168e+01             
       H -8.27468e+01 -2.29502e+01  5.68689e+01             
       O -5.64816e+01 -2.12315e+01  5.14012e+01             
       H -5.58609e+01 -2.05289e+01  5.14146e+01             
       H -5.58988e+01 -2.19973e+01  5.16943e+01             
       O -7.54524e+01 -1.23237e+01  2.22963e+01             
       H -7.51587e+01 -1.14048e+01  2.22705e+01             
       H -7.47000e+01 -1.28968e+01  2.26328e+01             
       O -6.56653e+01 -1.85166e+01  2.89177e+01             
       H -4.21891e+01 -1.13273e+01  3.87448e+01             
       H -6.53453e+01 -1.80037e+01  2.96800e+01             
       O -6.83162e+01 -1.33202e+01  5.58702e+01             
       H -6.81728e+01 -1.33391e+01  5.68308e+01             
       H -6.74436e+01 -1.36115e+01  5.55418e+01             
       O -7.00179e+01 -1.58130e+01  6.87928e+01             
       H -6.97878e+01 -1.51885e+01  6.80808e+01             
       H -6.92261e+01 -1.57345e+01  6.94286e+01             
192                                                         
# CELL(abcABC):   12.41850    12.41850    12.41850    90.00000    90.00000    90.00000  Step:      200000  Bead:       0 x_centroid{angstrom}  cell{angstrom}   
       O -8.65525e+01 -1.25082e+01  6.83406e+01             
       H -8.56448e+01 -1.27955e+01  6.81734e+01             
       H -8.63830e+01 -1.16722e+01  6.87821e+01             
       O -8.00927e+01 -7.17562e+00  6.98299e+01             
       H -7.54454e+01 -2.32935e+01  6.54229e+01             
       H -7.97426e+01 -6.53360e+00  7.04657e+01             
       O -8.17353e+01 -3.00951e+01  5.19426e+01             
       H -8.14668e+01 -1.73459e+01  5.28093e+01             
       H -8.09712e+01 -2.98345e+01  5.14260e+01             
       O -7.76365e+01 -2.83657e+01  5.70512e+01             
       H -7.75732e+01 -2.74890e+01  5.76394e+01             
       H -7.66880e+01 -2.86575e+01  5.69591e+01             
       O -6.62293e+01 -2.54682e+01  6.09877e+01             
       H -6.54748e+01 -2.54061e+01  6.16141e+01             
       H -6.59065e+01 -2.59444e+01  6.02024e+01             
       O -6.91660e+01 -1.81823e+01  7.31558e+01             
       H -6.85878e+01 -1.86022e+01  7.38165e+01             
       H -6.86393e+01 -1.76485e+01  7.25492e+01             
       O -8.29141e+01 -2.37683e+01  4.68715e+01             
       H -8.21135e+01 -2.36872e+01  4.73179e+01             
       H -6.73102e+01 -1.13978e+00  5.52584e+01             
       O -6.60006e+01 -2.21021e+01  7.70959e+01             
       H -6.49564e+01 -2.20732e+01  7.71775e+01             
       H -6.61203e+01 -3.55069e+01  7.72406e+01             
       O -8.66473e+01 -1.21493e+01  5.25782e+01             
       H -8.58039e+01 -1.21570e+01  5.30223e+01             
       H -8.67132e+01 -1.30666e+01  5.22689e+01             
       O -8.12207e+01 -2.94012e+01  5.48288e+01             
       H -8.12883e+01 -3.01943e+01  5.52674e+01             
       H -8.03324e+01 -2.90540e+01  5.49517e+01             
       O -8.42377e+01 -8.36338e+00  7.47989e+01             
       H -8.38391e+01 -8.15037e+00  7.56448e+01             
       H -8.34466e+01 -8.89476e+00  7.43788e+01             
       O -8.57573e+01 -1.68960e+01  5.45022e+01             
       H -8.50112e+01 -1.74874e+01  5.42285e+01             
       H -6.86522e+01 -1.53162e+01  4.74439e+01             
       O -7.36021e+01 -3.43272e+01  5.67289e+01             
       H -7.26771e+01 -3.43299e+01  5.70869e+01             
       H -7.29656e+01 -2.97577e+01  6.21775e+01             
       O -8.76067e+01 -1.71912e+01  5.68288e+01             
       H -8.68630e+01 -1.65869e+01  5.71505e+01             
       H -8.77336e+01 -1.78356e+01  5.75175e+01             
       O -6.68970e+01 -2.86856e+01  6.32954e+01             
       H -6.61511e+01 -2.84607e+01  6.38426e+01             
       H -6.63605e+01 -2.92829e+01  6.26213e+01             
       O -7.90658e+01 -1.53303e+01  6.71916e+01             
       H -7.84670e+01 -1.55746e+01  6.79716e+01             
       H -7.84167e+01 -1.52558e+01  6.64893e+01             
       O -8.25299e+01 -1.45104e+01  5.36899e+01             
       H -8.17324e+01 -2.64321e+01  5.34212e+01             
       H -8.21182e+01 -1.53685e+01  5.40247e+01             
       O -7.91133e+01 -2.98110e+01  4.63005e+01             
       H -7.86579e+01 -3.00298e+01  4.71642e+01             
       H -7.84695e+01 -2.94119e+01  4.56461e+01             
       O -8.96403e+01 -1.36825e+01  5.84230e+01             
       H -8.88049e+01 -1.38194e+01  5.88180e+01             
       H -8.96951e+01 -1.28257e+01  5.79506e+01             
       O -8.42141e+01  1.48170e+00  5.34305e+01             
       H -5.64191e+01 -2.52953e+01  5.70730e+01             
       H -8.34961e+01  1.43348e+00  5.40999e+01             
       O -7.50050e+01 -1.92262e+01  6.39465e+01             
       H -7.61227e+01 -2.62269e+01  6.20031e+01             
       H -8.69114e+01 -2.00211e+01  6.39193e+01             
       O -7.99325e+01 -3.23810e+01  6.28851e+01             
       H -7.91091e+01 -3.26337e+01  6.24508e+01             
       H -7.96250e+01 -3.23486e+01  6.37934e+01             
       O -8.28151e+01 -2.41570e+01  6.36125e+01             
       H -8.20263e+01 -2.46381e+01  6.38927e+01             
       H -8.24795e+01 -2.33174e+01  6.31964e+01             
       O -7.45646e+01 -4.44519e+01  5.86629e+01             
       H -7.42972e+01 -4.49873e+01  5.79201e+01             
       H -7.37465e+01 -4.42902e+01  7.16013e+01             
       O -7.79087e+01 -7.43907e+00  5.57040e+01             
       H -7.71098e+01 -8.07948e+00  5.57068e+01             
       H -7.75536e+01 -6.59367e+00  5.52990e+01             
       O -7.16483e+01 -2.63020e+01  6.83756e+01             
       H -7.12039e+01 -2.64248e+01  6.75029e+01             
       H -7.09530e+01 -2.61488e+01  6.90029e+01             
       O -8.07579e+01 -2.71830e+01  7.40554e+01             
       H -8.00994e+01 -2.64351e+01  7.39308e+01             
       H -8.02437e+01 -2.77391e+01  7.47031e+01             
       O -9.58374e+01 -2.23462e+01  5.72126e+01             
       H -9.52622e+01 -2.26557e+01  5.64731e+01             
       H -9.56050e+01 -2.28394e+01  5.80195e+01             
       O -7.10003e+01 -4.83515e+00  7.10259e+01             
       H -7.06790e+01 -5.67309e+00  7.05725e+01             
       H -7.02566e+01 -4.37259e+00  7.14094e+01             
       O -7.55134e+01 -1.57186e+01  4.88647e+01             
       H -7.49139e+01 -1.63926e+01  4.91743e+01             
       H -7.51212e+01 -1.51641e+01  3.57140e+01             
       O -7.40480e+01 -2.20443e+01  3.81276e+01             
       H -7.40686e+01 -2.27754e+01  3.87293e+01             
       H -8.55516e+01 -2.18679e+01  3.78325e+01             
       O -6.65026e+01 -2.19782e+01  3.41765e+01             
       H -6.67304e+01 -2.11845e+01  3.35968e+01             
       H -6.57374e+01 -2.17507e+01  3.46680e+01             
       O -7.30229e+01 -2.81175e+01  4.48781e+01             
       H -7.26153e+01 -2.75287e+01  4.41764e+01             
       H -7.23331e+01 -2.86434e+01  5.77813e+01             
       O -7.71344e+01 -1.99732e+01  4.98795e+01             
       H -7.56880e+01 -1.39737e+01  5.42314e+01             
       H -7.63092e+01 -1.97676e+01  5.04622e+01             
       O -7.45669e+01 -2.65794e+01  5.93099e+01             
       H -7.40203e+01 -2.70453e+01  5.85998e+01             
       H -7.39256e+01 -2.60085e+01  5.97691e+01             
       O -6.54961e+01 -1.75075e+01  4.89543e+01             
       H -6.48297e+01 -1.68132e+01  4.91169e+01             
       H -6.51706e+01 -1.84037e+01  4.93010e+01             
       O -7.03429e+01 -3.19299e+01  5.71018e+01             
       H -6.93672e+01 -3.20361e+01  5.71335e+01             
       H -7.05788e+01 -3.28941e+01  5.72239e+01             
       O -7.64418e+01 -5.57438e+00  6.69469e+01             
       H -7.57911e+01 -6.10724e+00  6.64343e+01             
       H -7.58880e+01 -5.01103e+00  6.75288e+01             
       O -6.93999e+01  1.64184e+00  7.99919e+01             
       H -6.89765e+01  2.21399e+00  7.92303e+01             
       H -6.88056e+01  8.82138e-01  8.00975e+01             
       O -7.38487e+01 -3.00980e+01  6.20043e+01             
       H -8.27352e+01 -2.45484e+01  4.62881e+01             
       H -7.36783e+01 -3.07298e+01  6.12616e+01             
       O -7.57436e+01 -2.24089e+01  6.54614e+01             
       H -7.68983e+01 -2.04803e+01  4.91154e+01             
       H -7.50130e+01 -2.18144e+01  6.56546e+01             
       O -6.84957e+01 -1.53712e+01  4.65224e+01             
       H -8.37137e+01 -1.11999e+01  5.25682e+01             
       H -6.76813e+01 -1.59885e+01  4.65173e+01             
       O -7.22097e+01 -3.14944e+01  6.03057e+01             
       H -8.43674e+01 -3.20578e+01  7.35152e+01             
       H -6.68816e+01 -7.26828e+00  6.92856e+01             
       O -1.04708e+02 -2.02797e+01  6.59927e+01             
       H -1.04112e+02 -2.09333e+01  6.54613e+01             
       H -1.04199e+02 -2.01797e+01  6.68514e+01             
       O -6.95615e+01 -3.80917e+01  5.76650e+01             
       H -6.91996e+01 -3.88558e+01  5.80729e+01             
       H -7.46054e+01 -1.85936e+01  6.32959e+01             
       O -7.63019e+01 -1.33938e+01  5.46966e+01             
       H -7.57151e+01 -1.29293e+01  5.52330e+01             
       H -9.36351e+01 -2.26000e+01  3.66807e+01             
       O -8.86827e+01 -2.21630e+01  5.56848e+01             
       H -8.87315e+01 -2.24072e+01  5.47418e+01             
       H -8.77575e+01 -2.21754e+01  5.58324e+01             
       O -7.21705e+01 -2.64592e+01  5.04519e+01             
       H -7.15501e+01 -2.57231e+01  5.05196e+01             
       H -7.16182e+01 -2.72503e+01  5.02434e+01             
       O -5.91155e+01 -3.18998e+01  5.45489e+01             
       H -5.88408e+01 -1.96233e+01  5.54567e+01             
       H -5.83999e+01 -3.20167e+01  5.37964e+01             
       O -7.27148e+01 -1.25574e+01  6.04465e+01             
       H -5.94696e+01 -1.20154e+01  6.01809e+01             
       H -7.24617e+01 -1.30121e+01  6.13582e+01             
       O -6.75874e+01 -3.32310e-01  5.57628e+01             
       H -7.32931e+01 -3.40246e+01  5.57881e+01             
       H -8.56656e+01 -4.38371e+00  5.54688e+01             
       O -8.59421e+01 -2.12589e+01  5.39538e+01             
       H -8.52325e+01 -2.04540e+01  5.40852e+01             
       H -8.53139e+01 -2.20041e+01  5.37956e+01             
       O -8.04381e+01 -1.31739e+01  4.00208e+01             
       H -8.04515e+01 -2.61886e+01  3.92698e+01             
       H -7.94486e+01 -1.30455e+01  4.01886e+01             
       O -8.74547e+01 -2.35918e+01  6.10439e+01             
       H -8.71095e+01 -2.28623e+01  6.16597e+01             
       H -8.66617e+01 -2.40656e+01  6.07599e+01             
       O -7.78623e+01 -2.52777e+01  6.49702e+01             
       H -7.73010e+01 -2.54243e+01  6.41729e+01             
       H -7.72814e+01 -2.56231e+01  6.57748e+01             
       O -8.89069e+01 -2.54738e+01  5.00567e+01             
       H -8.83206e+01 -2.47394e+01  6.21392e+01             
       H -8.38168e+01 -4.34693e+01  4.76163e+01             
       O -6.55586e+01 -2.39022e+01  6.95466e+01             
       H -6.50722e+01 -2.33055e+01  6.89695e+01             
       H -6.59200e+01 -2.33594e+01  7.02461e+01             
       O -7.63925e+01 -2.14767e+01  5.99813e+01             
       H -7.57189e+01 -2.10858e+01  5.93993e+01             
       H -7.59538e+01 -2.23055e+01  6.03740e+01             
       O -9.92503e+01 -2.75550e+01  6.49097e+01             
       H -9.87773e+01 -2.79959e+01  6.56823e+01             
       H -9.86212e+01 -2.75673e+01  6.41889e+01             
       O -6.80340e+01 -2.35620e+01  6.04335e+01             
       H -6.75453e+01 -2.30980e+01  5.97004e+01             
       H -6.74305e+01 -2.42578e+01  6.07330e+01             
       O -8.95815e+01 -1.60084e+01  2.79582e+01             
       H -8.86923e+01 -1.56829e+01  2.76847e+01             
       H -8.94097e+01 -1.67828e+01  2.84775e+01             
       O -8.17533e+01 -2.20200e+01  3.72484e+01             
       H -5.43959e+01 -1.23136e+01  4.37057e+01             
       H -8.10878e+01 -2.13433e+01  3.75770e+01             
       O -8.36518e+01 -1.66553e+01  6.24996e+01             
       H -8.30133e+01 -1.68874e+01  6.17857e+01             
       H -8.32580e+01 -1.69139e+01  6.33145e+01             
       O -8.27938e+01 -2.01828e+01  7.70721e+01             
       H -8.23250e+01 -1.93223e+01  7.68347e+01             
       H -8.20103e+01 -2.07259e+01  7.70204e+01             
