192                                                         
# CELL(abcABC):   12.41850    12.41850    12.41850    90.00000    90.00000    90.00000  Step:           0  Bead:       0 x_centroid{angstrom}  cell{angstrom}   
       O -7.57514e+01 -9.69193e+00  6.35026e+01             
       H -7.53046e+01 -1.05105e+01  6.31510e+01             
       H -7.49829e+01 -9.17860e+00  6.38037e+01             
       O -6.73885e+01 -6.96042e+00  6.33654e+01             
       H -6.40560e+01 -1.82185e+01  5.68155e+01             
       H -6.69522e+01 -6.78840e+00  6.42122e+01             
       O -6.81135e+01 -2.75233e+01  4.80567e+01             
       H -6.74899e+01 -1.58131e+01  4.80238e+01             
       H -6.77246e+01 -2.66822e+01  4.77952e+01             
       O -6.62028e+01 -2.45393e+01  5.26304e+01             
       H -6.59680e+01 -2.35898e+01  5.25677e+01             
       H -6.54307e+01 -2.50841e+01  5.27543e+01             
       O -5.54792e+01 -2.24162e+01  5.51465e+01             
       H -5.46422e+01 -2.18985e+01  5.53411e+01             
       H -5.55134e+01 -2.24085e+01  5.41448e+01             
       O -5.67594e+01 -1.64579e+01  6.54355e+01             
       H -5.60104e+01 -1.63992e+01  6.47729e+01             
       H -5.66398e+01 -1.72325e+01  6.60069e+01             
       O -7.00667e+01 -2.04806e+01  4.30849e+01             
       H -6.94799e+01 -1.97374e+01  4.28752e+01             
       H -5.62995e+01  5.57470e-01  5.30502e+01             
       O -5.44835e+01 -1.69423e+01  6.90099e+01             
       H -5.37931e+01 -1.63147e+01  6.87179e+01             
       H -5.39601e+01 -2.99501e+01  6.95585e+01             
       O -7.62878e+01 -1.06446e+01  4.59119e+01             
       H -7.53899e+01 -1.04676e+01  4.61835e+01             
       H -7.62566e+01 -1.15981e+01  4.57721e+01             
       O -6.71465e+01 -2.84389e+01  5.12081e+01             
       H -6.62951e+01 -2.85267e+01  5.16454e+01             
       H -6.72040e+01 -2.74920e+01  5.09474e+01             
       O -7.32644e+01 -7.93716e+00  5.97750e+01             
       H -7.26645e+01 -7.90285e+00  6.05815e+01             
       H -7.26649e+01 -7.84304e+00  5.89931e+01             
       O -7.01331e+01 -1.04187e+01  4.92910e+01             
       H -7.01100e+01 -1.06657e+01  4.83854e+01             
       H -5.64687e+01 -1.53127e+01  4.64614e+01             
       O -6.39002e+01 -3.16021e+01  4.75775e+01             
       H -6.41713e+01 -3.14636e+01  4.66374e+01             
       H -6.22569e+01 -2.85717e+01  5.91237e+01             
       O -7.65426e+01 -1.39859e+01  5.31548e+01             
       H -7.58443e+01 -1.33552e+01  5.33827e+01             
       H -7.63000e+01 -1.47447e+01  5.26119e+01             
       O -5.48408e+01 -2.52015e+01  5.86156e+01             
       H -5.39407e+01 -2.53229e+01  5.89291e+01             
       H -5.48137e+01 -2.48609e+01  5.77000e+01             
       O -6.71068e+01 -1.33263e+01  6.27469e+01             
       H -6.67739e+01 -1.28906e+01  6.35448e+01             
       H -6.64316e+01 -1.33321e+01  6.20742e+01             
       O -6.95036e+01 -1.09454e+01  4.65891e+01             
       H -6.88346e+01 -2.41317e+01  4.64528e+01             
       H -6.88850e+01 -1.01844e+01  4.66205e+01             
       O -6.93828e+01 -2.60115e+01  4.21949e+01             
       H -6.86878e+01 -2.55808e+01  4.26559e+01             
       H -6.89951e+01 -2.68646e+01  4.20864e+01             
       O -7.76203e+01 -9.63826e+00  5.30745e+01             
       H -7.70669e+01 -9.90853e+00  5.38767e+01             
       H -7.68759e+01 -9.58313e+00  5.24408e+01             
       O -7.21295e+01  5.69398e+00  4.43457e+01             
       H -4.60911e+01 -1.54691e+01  5.03613e+01             
       H -7.16307e+01  5.01512e+00  4.38210e+01             
       O -5.99258e+01 -1.40722e+01  6.06994e+01             
       H -6.51102e+01 -2.21334e+01  5.74816e+01             
       H -7.18510e+01 -1.37385e+01  6.14255e+01             
       O -6.62682e+01 -3.20047e+01  5.36300e+01             
       H -6.54490e+01 -3.18969e+01  5.41487e+01             
       H -6.61463e+01 -3.29198e+01  5.33870e+01             
       O -7.45747e+01 -2.04034e+01  5.65754e+01             
       H -7.41738e+01 -2.12163e+01  5.63001e+01             
       H -7.39855e+01 -1.96964e+01  5.67019e+01             
       O -6.10430e+01 -4.18291e+01  4.81102e+01             
       H -6.05829e+01 -4.12880e+01  4.87823e+01             
       H -6.01989e+01 -4.20622e+01  5.99880e+01             
       O -6.40665e+01 -4.04105e+00  4.89126e+01             
       H -6.36471e+01 -3.14414e+00  4.88784e+01             
       H -6.33242e+01 -4.65810e+00  4.88749e+01             
       O -6.19672e+01 -2.41805e+01  6.22331e+01             
       H -6.10721e+01 -2.41911e+01  6.26623e+01             
       H -6.17920e+01 -2.36797e+01  6.13970e+01             
       O -6.71981e+01 -2.51301e+01  6.82814e+01             
       H -6.69405e+01 -2.43514e+01  6.78399e+01             
       H -6.64879e+01 -2.57820e+01  6.80618e+01             
       O -8.23868e+01 -1.86716e+01  5.02553e+01             
       H -8.13935e+01 -1.88614e+01  5.03843e+01             
       H -8.26630e+01 -1.84030e+01  5.11532e+01             
       O -5.94634e+01 -6.77763e-01  6.57233e+01             
       H -5.85551e+01 -5.29526e-01  6.60884e+01             
       H -5.94332e+01 -1.65387e+00  6.55497e+01             
       O -6.38000e+01 -1.31382e+01  4.50280e+01             
       H -6.33775e+01 -1.38170e+01  4.55998e+01             
       H -6.31063e+01 -1.29496e+01  3.19644e+01             
       O -6.24841e+01 -1.81130e+01  2.81322e+01             
       H -6.20541e+01 -1.87977e+01  2.76488e+01             
       H -7.41976e+01 -1.75828e+01  2.85397e+01             
       O -5.19995e+01 -1.63674e+01  2.69235e+01             
       H -5.18744e+01 -1.64668e+01  2.59630e+01             
       H -5.13733e+01 -1.69903e+01  2.73983e+01             
       O -5.96568e+01 -2.38857e+01  3.83898e+01             
       H -5.88480e+01 -2.37175e+01  3.78036e+01             
       H -5.93462e+01 -2.45483e+01  5.14357e+01             
       O -6.20209e+01 -1.30185e+01  4.20261e+01             
       H -6.53869e+01 -9.25157e+00  4.86525e+01             
       H -6.19127e+01 -1.37308e+01  4.26795e+01             
       O -6.37527e+01 -2.33951e+01  5.50848e+01             
       H -6.28807e+01 -2.37939e+01  5.50789e+01             
       H -6.36760e+01 -2.28377e+01  5.59189e+01             
       O -5.28664e+01 -1.46738e+01  4.32936e+01             
       H -5.22985e+01 -1.42122e+01  4.39096e+01             
       H -5.24967e+01 -1.45756e+01  4.23670e+01             
       O -5.65481e+01 -3.16820e+01  4.76042e+01             
       H -5.62146e+01 -3.11582e+01  4.83443e+01             
       H -5.58126e+01 -3.22748e+01  4.73537e+01             
       O -6.28474e+01 -1.71059e+00  6.10654e+01             
       H -6.20767e+01 -1.96521e+00  6.05042e+01             
       H -6.25862e+01 -9.13222e-01  6.16669e+01             
       O -6.08878e+01  7.83624e+00  6.76131e+01             
       H -6.02989e+01  7.23611e+00  6.81594e+01             
       H -6.03434e+01  8.17352e+00  6.69025e+01             
       O -6.27579e+01 -2.82085e+01  5.83866e+01             
       H -6.95146e+01 -2.11506e+01  4.34626e+01             
       H -6.21129e+01 -2.79738e+01  5.76867e+01             
       O -6.44971e+01 -1.80074e+01  5.76578e+01             
       H -6.11501e+01 -1.29100e+01  4.16600e+01             
       H -6.39801e+01 -1.73103e+01  5.81034e+01             
       O -5.70674e+01 -1.55942e+01  4.57479e+01             
       H -7.16317e+01 -6.49620e+00  4.51453e+01             
       H -5.64672e+01 -1.60032e+01  4.50882e+01             
       O -5.93197e+01 -2.83317e+01  5.30495e+01             
       H -7.07265e+01 -2.83127e+01  6.55724e+01             
       H -5.41970e+01 -6.88319e+00  6.27859e+01             
       O -9.14394e+01 -1.74427e+01  6.09090e+01             
       H -9.05193e+01 -1.73202e+01  6.06888e+01             
       H -9.15693e+01 -1.71401e+01  6.18606e+01             
       O -5.89821e+01 -2.87303e+01  5.02407e+01             
       H -5.84671e+01 -2.92703e+01  4.96741e+01             
       H -5.98498e+01 -1.34041e+01  6.00320e+01             
       O -6.55893e+01 -1.00022e+01  4.80438e+01             
       H -6.48966e+01 -1.00045e+01  4.73457e+01             
       H -7.99786e+01 -1.88874e+01  2.96638e+01             
       O -7.75874e+01 -2.02415e+01  4.94821e+01             
       H -7.71129e+01 -1.98301e+01  4.86956e+01             
       H -7.69245e+01 -2.06406e+01  5.00446e+01             
       O -5.96576e+01 -2.40910e+01  4.56330e+01             
       H -5.87956e+01 -2.37709e+01  4.59783e+01             
       H -5.95275e+01 -2.49027e+01  4.51293e+01             
       O -4.52184e+01 -2.63366e+01  4.98935e+01             
       H -4.45019e+01 -1.34490e+01  5.03398e+01             
       H -4.47068e+01 -2.66991e+01  4.91466e+01             
       O -6.10555e+01 -1.02764e+01  5.59294e+01             
       H -4.80530e+01 -1.07376e+01  5.65712e+01             
       H -6.04280e+01 -9.96203e+00  5.51943e+01             
       O -5.68507e+01  1.20431e+00  5.26521e+01             
       H -6.29628e+01 -3.16813e+01  4.74450e+01             
       H -6.91414e+01  1.95277e+00  4.94501e+01             
       O -7.10094e+01 -1.78092e+01  4.65708e+01             
       H -7.02820e+01 -1.83229e+01  4.68853e+01             
       H -7.05725e+01 -1.69958e+01  4.61702e+01             
       O -7.17129e+01 -8.01748e+00  3.70608e+01             
       H -7.11733e+01 -2.11866e+01  3.68144e+01             
       H -7.11233e+01 -7.31525e+00  3.73515e+01             
       O -7.64705e+01 -1.91022e+01  5.51735e+01             
       H -7.57493e+01 -1.97053e+01  5.55361e+01             
       H -7.60218e+01 -1.86766e+01  5.44326e+01             
       O -6.76387e+01 -2.13620e+01  5.88359e+01             
       H -6.70288e+01 -2.10656e+01  5.81374e+01             
       H -6.69561e+01 -2.17396e+01  5.94150e+01             
       O -7.79020e+01 -2.12458e+01  4.47802e+01             
       H -7.71377e+01 -2.06892e+01  5.73267e+01             
       H -7.17336e+01 -4.12656e+01  3.97778e+01             
       O -5.50430e+01 -2.24621e+01  6.30675e+01             
       H -5.47329e+01 -2.15964e+01  6.33729e+01             
       H -5.42494e+01 -2.27488e+01  6.26107e+01             
       O -6.12268e+01 -2.06040e+01  5.18519e+01             
       H -6.06449e+01 -2.10082e+01  5.24995e+01             
       H -6.07838e+01 -2.05595e+01  5.09728e+01             
       O -8.64839e+01 -2.31483e+01  5.97420e+01             
       H -8.62276e+01 -2.22051e+01  5.96801e+01             
       H -8.58117e+01 -2.35988e+01  5.91894e+01             
       O -5.90435e+01 -2.20044e+01  5.35684e+01             
       H -5.86164e+01 -2.12674e+01  5.40811e+01             
       H -5.82970e+01 -2.24539e+01  5.31989e+01             
       O -7.78233e+01 -1.27677e+01  2.32220e+01             
       H -7.77785e+01 -1.18338e+01  2.34160e+01             
       H -7.69065e+01 -1.30184e+01  2.32353e+01             
       O -6.83736e+01 -1.84127e+01  3.00072e+01             
       H -4.38709e+01 -1.07255e+01  3.96186e+01             
       H -6.79100e+01 -1.78232e+01  3.06948e+01             
       O -7.11973e+01 -1.37795e+01  5.68416e+01             
       H -7.06370e+01 -1.36229e+01  5.60266e+01             
       H -7.07301e+01 -1.44178e+01  5.74378e+01             
       O -7.36411e+01 -1.47240e+01  6.88952e+01             
       H -7.27483e+01 -1.43621e+01  6.89188e+01             
       H -7.35456e+01 -1.55845e+01  6.84060e+01             
192                                                         
# CELL(abcABC):   12.41850    12.41850    12.41850    90.00000    90.00000    90.00000  Step:      200000  Bead:       0 x_centroid{angstrom}  cell{angstrom}   
       O -9.05519e+01 -1.21950e+01  7.24240e+01             
       H -9.05053e+01 -1.28817e+01  7.17147e+01             
       H -8.97092e+01 -1.17136e+01  7.23321e+01             
       O -8.32056e+01 -1.17273e+01  7.09113e+01             
       H -8.03104e+01 -2.07174e+01  6.37582e+01             
       H -8.23124e+01 -1.15813e+01  7.13686e+01             
       O -8.24915e+01 -3.12554e+01  5.39739e+01             
       H -8.20760e+01 -1.97332e+01  5.41171e+01             
       H -8.18095e+01 -3.05537e+01  5.41121e+01             
       O -8.33377e+01 -3.43009e+01  6.20728e+01             
       H -8.30033e+01 -3.36367e+01  6.26954e+01             
       H -8.29091e+01 -3.40771e+01  6.12378e+01             
       O -7.45661e+01 -2.65879e+01  6.54820e+01             
       H -7.40975e+01 -2.58820e+01  6.59087e+01             
       H -7.37885e+01 -2.72026e+01  6.54111e+01             
       O -6.93467e+01 -2.12874e+01  7.23522e+01             
       H -6.87026e+01 -2.06358e+01  7.23521e+01             
       H -6.88487e+01 -2.20934e+01  7.23864e+01             
       O -8.51272e+01 -2.39445e+01  5.21879e+01             
       H -8.45875e+01 -2.36658e+01  5.28988e+01             
       H -7.14758e+01 -7.49291e-01  5.95971e+01             
       O -7.03304e+01 -1.94307e+01  7.57312e+01             
       H -6.96127e+01 -1.88623e+01  7.53079e+01             
       H -7.02074e+01 -3.18099e+01  7.66976e+01             
       O -9.12504e+01 -1.54812e+01  5.38802e+01             
       H -9.03791e+01 -1.51772e+01  5.42708e+01             
       H -9.10553e+01 -1.56181e+01  5.29304e+01             
       O -8.17284e+01 -2.99491e+01  5.82169e+01             
       H -8.08079e+01 -3.00984e+01  5.78989e+01             
       H -8.18178e+01 -2.90025e+01  5.82721e+01             
       O -8.81995e+01 -1.17905e+01  6.74726e+01             
       H -8.75293e+01 -1.18756e+01  6.81684e+01             
       H -8.77506e+01 -1.12565e+01  6.67807e+01             
       O -8.46063e+01 -1.42857e+01  5.67616e+01             
       H -8.40879e+01 -1.42884e+01  5.59182e+01             
       H -7.20413e+01 -1.60437e+01  5.37632e+01             
       O -7.84747e+01 -3.62744e+01  5.43039e+01             
       H -7.81725e+01 -3.63032e+01  5.33504e+01             
       H -7.67543e+01 -3.20292e+01  6.53080e+01             
       O -9.02258e+01 -2.06767e+01  6.05908e+01             
       H -8.96055e+01 -2.08782e+01  6.13643e+01             
       H -8.96627e+01 -2.08783e+01  5.97649e+01             
       O -6.83194e+01 -2.93008e+01  6.72810e+01             
       H -6.78026e+01 -2.99285e+01  6.78581e+01             
       H -6.75300e+01 -2.88735e+01  6.67794e+01             
       O -8.00747e+01 -1.91744e+01  7.25785e+01             
       H -7.91432e+01 -1.97474e+01  7.27618e+01             
       H -7.98860e+01 -1.88424e+01  7.16969e+01             
       O -8.29690e+01 -1.51594e+01  5.41967e+01             
       H -8.23293e+01 -2.68422e+01  5.39281e+01             
       H -8.22868e+01 -1.58190e+01  5.44384e+01             
       O -8.36989e+01 -3.06755e+01  4.75723e+01             
       H -8.28212e+01 -3.06373e+01  4.71120e+01             
       H -8.34231e+01 -3.09036e+01  4.84370e+01             
       O -9.17435e+01 -1.38770e+01  6.16847e+01             
       H -9.10179e+01 -1.45528e+01  6.17947e+01             
       H -9.12823e+01 -1.31564e+01  6.11414e+01             
       O -8.71611e+01  2.37180e+00  5.27993e+01             
       H -6.33427e+01 -2.19557e+01  5.86507e+01             
       H -8.63799e+01  1.84148e+00  5.25149e+01             
       O -7.63218e+01 -1.94604e+01  6.72997e+01             
       H -8.05799e+01 -2.52429e+01  6.66990e+01             
       H -8.80604e+01 -1.99138e+01  6.78224e+01             
       O -7.90124e+01 -3.49905e+01  6.28535e+01             
       H -7.87754e+01 -3.45997e+01  6.20012e+01             
       H -7.82421e+01 -3.52037e+01  6.33920e+01             
       O -8.93904e+01 -2.36020e+01  6.42825e+01             
       H -8.88301e+01 -2.42836e+01  6.38275e+01             
       H -8.86698e+01 -2.30072e+01  6.46221e+01             
       O -7.36402e+01 -4.56007e+01  5.55765e+01             
       H -7.31158e+01 -4.64827e+01  5.56750e+01             
       H -7.34659e+01 -4.51063e+01  6.87869e+01             
       O -8.00192e+01 -9.86665e+00  5.60771e+01             
       H -7.94003e+01 -9.08862e+00  5.63107e+01             
       H -7.94784e+01 -1.03392e+01  5.53803e+01             
       O -7.78721e+01 -2.65754e+01  7.02049e+01             
       H -7.72850e+01 -2.73378e+01  7.02843e+01             
       H -7.73234e+01 -2.61005e+01  6.95877e+01             
       O -8.50053e+01 -2.83709e+01  7.22557e+01             
       H -8.46123e+01 -2.75569e+01  7.27302e+01             
       H -8.44042e+01 -2.90926e+01  7.23878e+01             
       O -9.84834e+01 -1.97788e+01  5.86544e+01             
       H -9.76143e+01 -2.02876e+01  5.83839e+01             
       H -9.81914e+01 -1.88557e+01  5.87483e+01             
       O -7.64508e+01 -3.81293e+00  7.04926e+01             
       H -7.60049e+01 -3.91457e+00  7.14208e+01             
       H -7.56379e+01 -3.97571e+00  6.99305e+01             
       O -7.83749e+01 -1.69931e+01  5.14729e+01             
       H -7.80756e+01 -1.78626e+01  5.16396e+01             
       H -7.78071e+01 -1.66551e+01  3.82745e+01             
       O -7.58381e+01 -2.12651e+01  3.77092e+01             
       H -7.49316e+01 -2.10150e+01  3.76262e+01             
       H -8.84231e+01 -2.19584e+01  3.83377e+01             
       O -6.81758e+01 -2.35304e+01  3.42553e+01             
       H -6.80800e+01 -2.33008e+01  3.33304e+01             
       H -6.73148e+01 -2.37574e+01  3.46005e+01             
       O -7.40028e+01 -2.47476e+01  4.46252e+01             
       H -7.32984e+01 -2.40416e+01  4.43946e+01             
       H -7.33570e+01 -2.55211e+01  5.71075e+01             
       O -7.51277e+01 -1.66996e+01  4.80406e+01             
       H -8.13542e+01 -1.45074e+01  5.77285e+01             
       H -7.49281e+01 -1.74130e+01  4.86545e+01             
       O -7.70513e+01 -2.79721e+01  6.20070e+01             
       H -7.63155e+01 -2.84879e+01  6.15023e+01             
       H -7.65549e+01 -2.73654e+01  6.25289e+01             
       O -6.84738e+01 -1.76058e+01  4.99329e+01             
       H -6.76946e+01 -1.73773e+01  5.04400e+01             
       H -6.81862e+01 -1.80311e+01  4.91007e+01             
       O -7.11508e+01 -3.31520e+01  5.77795e+01             
       H -7.05249e+01 -3.34147e+01  5.84912e+01             
       H -7.07597e+01 -3.23907e+01  5.73726e+01             
       O -7.80251e+01 -7.83967e+00  6.91119e+01             
       H -7.75690e+01 -7.56669e+00  6.83090e+01             
       H -7.74207e+01 -8.10661e+00  6.98349e+01             
       O -7.32735e+01  3.87394e+00  7.39555e+01             
       H -7.31490e+01  4.08942e+00  7.29931e+01             
       H -7.23013e+01  3.62994e+00  7.42087e+01             
       O -7.73274e+01 -3.21657e+01  6.45290e+01             
       H -8.45011e+01 -2.45246e+01  5.17220e+01             
       H -7.67441e+01 -3.26330e+01  6.38775e+01             
       O -8.01211e+01 -2.03373e+01  6.46013e+01             
       H -7.41884e+01 -1.63438e+01  4.78535e+01             
       H -7.91372e+01 -2.02615e+01  6.47075e+01             
       O -7.27713e+01 -1.65544e+01  5.33025e+01             
       H -8.69441e+01 -9.03582e+00  5.28318e+01             
       H -7.24208e+01 -1.66681e+01  5.24049e+01             
       O -7.07428e+01 -3.73009e+01  6.26663e+01             
       H -8.33531e+01 -3.63542e+01  7.49092e+01             
       H -7.05670e+01 -1.23152e+01  7.01921e+01             
       O -1.06453e+02 -2.13863e+01  6.64491e+01             
       H -1.05818e+02 -2.10960e+01  6.57448e+01             
       H -1.06016e+02 -2.16606e+01  6.72618e+01             
       O -7.59945e+01 -3.34390e+01  5.85513e+01             
       H -7.51145e+01 -3.30225e+01  5.85809e+01             
       H -7.60030e+01 -1.85566e+01  6.73281e+01             
       O -8.21567e+01 -1.47543e+01  5.82578e+01             
       H -8.19104e+01 -1.45115e+01  5.91891e+01             
       H -9.64007e+01 -2.82138e+01  3.76117e+01             
       O -9.28064e+01 -2.65170e+01  5.64597e+01             
       H -9.26894e+01 -2.72790e+01  5.58666e+01             
       H -9.18675e+01 -2.63849e+01  5.68408e+01             
       O -7.52783e+01 -2.93703e+01  5.46583e+01             
       H -7.47113e+01 -2.91649e+01  5.39047e+01             
       H -7.46442e+01 -2.92092e+01  5.54320e+01             
       O -6.13817e+01 -2.88962e+01  5.68428e+01             
       H -6.09287e+01 -1.56333e+01  5.68306e+01             
       H -6.06970e+01 -2.96180e+01  5.67080e+01             
       O -7.55326e+01 -1.29327e+01  6.30759e+01             
       H -6.25260e+01 -1.33204e+01  6.38227e+01             
       H -7.48710e+01 -1.23488e+01  6.25164e+01             
       O -7.20274e+01 -1.02143e+00  6.03703e+01             
       H -7.76855e+01 -3.65638e+01  5.47413e+01             
       H -8.39755e+01 -2.12347e+00  5.74667e+01             
       O -8.39532e+01 -1.80988e+01  5.65372e+01             
       H -8.32251e+01 -1.78558e+01  5.70823e+01             
       H -8.35660e+01 -1.81575e+01  5.57017e+01             
       O -8.45424e+01 -1.05446e+01  4.36959e+01             
       H -8.40308e+01 -2.33964e+01  4.28870e+01             
       H -8.39197e+01 -1.02708e+01  4.43526e+01             
       O -9.29563e+01 -2.47936e+01  6.36363e+01             
       H -9.25771e+01 -2.38865e+01  6.34266e+01             
       H -9.23312e+01 -2.54231e+01  6.32001e+01             
       O -8.30967e+01 -2.34555e+01  6.62333e+01             
       H -8.25017e+01 -2.41761e+01  6.62273e+01             
       H -8.25322e+01 -2.26286e+01  6.61545e+01             
       O -9.37028e+01 -2.52953e+01  5.36246e+01             
       H -9.32450e+01 -2.52985e+01  6.51708e+01             
       H -8.22401e+01 -4.98253e+01  5.05454e+01             
       O -6.92486e+01 -2.74105e+01  7.36525e+01             
       H -6.84482e+01 -2.68778e+01  7.38819e+01             
       H -6.91002e+01 -2.83756e+01  7.36501e+01             
       O -7.56329e+01 -2.35765e+01  5.91215e+01             
       H -7.49184e+01 -2.36540e+01  5.97357e+01             
       H -7.52901e+01 -2.41401e+01  5.83765e+01             
       O -1.01480e+02 -2.70614e+01  6.77968e+01             
       H -1.01012e+02 -2.62504e+01  6.75611e+01             
       H -1.00850e+02 -2.77539e+01  6.75077e+01             
       O -7.39887e+01 -2.40315e+01  6.12472e+01             
       H -7.34135e+01 -2.32533e+01  6.14221e+01             
       H -7.33732e+01 -2.47243e+01  6.09046e+01             
       O -9.15253e+01 -1.79754e+01  3.28285e+01             
       H -9.06928e+01 -1.74927e+01  3.30838e+01             
       H -9.11429e+01 -1.88606e+01  3.25315e+01             
       O -8.38024e+01 -2.90455e+01  3.80483e+01             
       H -5.89992e+01 -1.34467e+01  4.87248e+01             
       H -8.28231e+01 -2.90828e+01  3.81721e+01             
       O -8.66220e+01 -1.98206e+01  6.50193e+01             
       H -8.62602e+01 -1.93655e+01  6.42904e+01             
       H -8.63002e+01 -1.94319e+01  6.58694e+01             
       O -8.61324e+01 -1.84260e+01  7.49108e+01             
       H -8.52685e+01 -1.79479e+01  7.50727e+01             
       H -8.57280e+01 -1.92190e+01  7.44622e+01             
