192                                                         
# CELL(abcABC):   12.41850    12.41850    12.41850    90.00000    90.00000    90.00000  Step:           0  Bead:       0 x_centroid{angstrom}  cell{angstrom}   
       O -7.50783e+01 -8.88452e+00  6.36628e+01             
       H -7.47954e+01 -9.68521e+00  6.31764e+01             
       H -7.42705e+01 -8.42628e+00  6.39921e+01             
       O -6.64223e+01 -7.49139e+00  6.25036e+01             
       H -6.37573e+01 -1.73950e+01  5.64706e+01             
       H -6.59798e+01 -7.31492e+00  6.32858e+01             
       O -6.78230e+01 -2.74045e+01  4.61748e+01             
       H -6.70024e+01 -1.53374e+01  4.66003e+01             
       H -6.76491e+01 -2.64771e+01  4.61154e+01             
       O -6.56968e+01 -2.51293e+01  5.19937e+01             
       H -6.51137e+01 -2.43784e+01  5.19616e+01             
       H -6.51804e+01 -2.58885e+01  5.23586e+01             
       O -5.35785e+01 -2.16593e+01  5.45061e+01             
       H -5.29995e+01 -2.15220e+01  5.52698e+01             
       H -5.29965e+01 -2.18407e+01  5.37368e+01             
       O -5.62408e+01 -1.68819e+01  6.57748e+01             
       H -5.56984e+01 -1.63874e+01  6.51522e+01             
       H -5.56702e+01 -1.76451e+01  6.60359e+01             
       O -6.86017e+01 -2.00114e+01  4.35593e+01             
       H -6.78314e+01 -1.97459e+01  4.29696e+01             
       H -5.66209e+01  1.32851e+00  5.24586e+01             
       O -5.36642e+01 -1.64211e+01  6.82424e+01             
       H -5.31458e+01 -1.55957e+01  6.81041e+01             
       H -5.30779e+01 -2.91653e+01  6.89435e+01             
       O -7.53200e+01 -1.04161e+01  4.57701e+01             
       H -7.44613e+01 -1.01779e+01  4.60442e+01             
       H -7.53126e+01 -1.13846e+01  4.55089e+01             
       O -6.68825e+01 -2.91521e+01  5.10083e+01             
       H -6.60558e+01 -2.95500e+01  5.09300e+01             
       H -6.68767e+01 -2.83333e+01  5.05087e+01             
       O -7.24623e+01 -7.10286e+00  6.01715e+01             
       H -7.16424e+01 -7.39806e+00  6.05656e+01             
       H -7.22314e+01 -6.91141e+00  5.92748e+01             
       O -6.93057e+01 -1.14884e+01  4.89120e+01             
       H -6.90563e+01 -1.10765e+01  4.80317e+01             
       H -5.58051e+01 -1.54008e+01  4.41335e+01             
       O -6.31436e+01 -3.19482e+01  4.64910e+01             
       H -6.33722e+01 -3.10923e+01  4.61538e+01             
       H -6.14382e+01 -2.75411e+01  5.85182e+01             
       O -7.57937e+01 -1.41835e+01  5.24960e+01             
       H -7.49333e+01 -1.37688e+01  5.22854e+01             
       H -7.57583e+01 -1.50942e+01  5.21871e+01             
       O -5.46186e+01 -2.49362e+01  5.79831e+01             
       H -5.37632e+01 -2.49306e+01  5.84218e+01             
       H -5.44027e+01 -2.51256e+01  5.70767e+01             
       O -6.72167e+01 -1.42221e+01  6.22121e+01             
       H -6.66229e+01 -1.38301e+01  6.28393e+01             
       H -6.68753e+01 -1.40924e+01  6.13493e+01             
       O -6.84824e+01 -1.04115e+01  4.63085e+01             
       H -6.79836e+01 -2.36076e+01  4.59511e+01             
       H -6.79042e+01 -9.70372e+00  4.61384e+01             
       O -6.83432e+01 -2.50060e+01  4.05942e+01             
       H -6.79864e+01 -2.47174e+01  4.14705e+01             
       H -6.75277e+01 -2.50672e+01  4.00501e+01             
       O -7.67872e+01 -1.03995e+01  5.26813e+01             
       H -7.61758e+01 -1.07279e+01  5.33502e+01             
       H -7.61896e+01 -9.76345e+00  5.22313e+01             
       O -7.09217e+01  5.63301e+00  4.52903e+01             
       H -4.57313e+01 -1.58400e+01  4.95627e+01             
       H -7.02675e+01  5.30524e+00  4.46255e+01             
       O -6.02664e+01 -1.36656e+01  5.94751e+01             
       H -6.40675e+01 -2.14595e+01  5.72280e+01             
       H -7.18792e+01 -1.40111e+01  5.99767e+01             
       O -6.47692e+01 -3.16391e+01  5.21265e+01             
       H -6.42139e+01 -3.08791e+01  5.23089e+01             
       H -6.42027e+01 -3.23873e+01  5.20229e+01             
       O -7.37560e+01 -2.03049e+01  5.68787e+01             
       H -7.35918e+01 -2.10445e+01  5.63009e+01             
       H -7.28454e+01 -1.99362e+01  5.70305e+01             
       O -6.13902e+01 -4.19442e+01  4.82252e+01             
       H -6.07298e+01 -4.14979e+01  4.86842e+01             
       H -6.11026e+01 -4.28422e+01  6.05187e+01             
       O -6.37474e+01 -3.56997e+00  4.87603e+01             
       H -6.36253e+01 -2.58351e+00  4.87841e+01             
       H -6.29230e+01 -3.96547e+00  4.84040e+01             
       O -6.17651e+01 -2.34270e+01  6.20615e+01             
       H -6.09121e+01 -2.33851e+01  6.24850e+01             
       H -6.14797e+01 -2.31327e+01  6.11631e+01             
       O -6.67970e+01 -2.44658e+01  6.76493e+01             
       H -6.65966e+01 -2.35317e+01  6.74524e+01             
       H -6.60880e+01 -2.48986e+01  6.71406e+01             
       O -8.15202e+01 -1.86303e+01  5.03633e+01             
       H -8.09834e+01 -1.87105e+01  4.95203e+01             
       H -8.09793e+01 -1.82710e+01  5.10361e+01             
       O -5.84370e+01 -1.12940e+00  6.58282e+01             
       H -5.76409e+01 -8.81828e-01  6.53753e+01             
       H -5.86373e+01 -2.09648e+00  6.56960e+01             
       O -6.31354e+01 -1.29025e+01  4.47014e+01             
       H -6.27762e+01 -1.35904e+01  4.53635e+01             
       H -6.25861e+01 -1.28049e+01  3.14843e+01             
       O -6.11480e+01 -1.75005e+01  2.83924e+01             
       H -6.08766e+01 -1.83983e+01  2.83102e+01             
       H -7.26976e+01 -1.70334e+01  2.83255e+01             
       O -5.09241e+01 -1.67767e+01  2.67568e+01             
       H -5.10873e+01 -1.68642e+01  2.58029e+01             
       H -5.00211e+01 -1.69683e+01  2.70765e+01             
       O -5.90024e+01 -2.33303e+01  3.81978e+01             
       H -5.83819e+01 -2.37107e+01  3.75792e+01             
       H -5.84000e+01 -2.28057e+01  5.12140e+01             
       O -6.07806e+01 -1.25376e+01  3.99518e+01             
       H -6.45189e+01 -9.23732e+00  4.81600e+01             
       H -5.99992e+01 -1.26885e+01  4.04930e+01             
       O -6.23009e+01 -2.36535e+01  5.43243e+01             
       H -6.19918e+01 -2.40764e+01  5.34898e+01             
       H -6.16041e+01 -2.33413e+01  5.48821e+01             
       O -5.22704e+01 -1.41876e+01  4.26807e+01             
       H -5.18314e+01 -1.37960e+01  4.33990e+01             
       H -5.16247e+01 -1.42012e+01  4.19508e+01             
       O -5.53321e+01 -3.14185e+01  4.78321e+01             
       H -5.45808e+01 -3.08741e+01  4.80907e+01             
       H -5.49135e+01 -3.20740e+01  4.72065e+01             
       O -6.25305e+01 -1.11184e+00  6.08684e+01             
       H -6.17906e+01 -1.03943e+00  6.02456e+01             
       H -6.23638e+01 -3.76484e-01  6.14416e+01             
       O -5.88670e+01  7.82390e+00  6.79593e+01             
       H -5.88172e+01  7.21626e+00  6.86662e+01             
       H -5.79311e+01  8.16030e+00  6.79122e+01             
       O -6.22320e+01 -2.76580e+01  5.79692e+01             
       H -6.84313e+01 -2.08639e+01  4.39320e+01             
       H -6.18037e+01 -2.76272e+01  5.70501e+01             
       O -6.40713e+01 -1.72302e+01  5.73516e+01             
       H -6.03645e+01 -1.20468e+01  3.91914e+01             
       H -6.35234e+01 -1.64944e+01  5.77123e+01             
       O -5.65545e+01 -1.52189e+01  4.35618e+01             
       H -7.04751e+01 -5.98126e+00  4.56669e+01             
       H -5.63269e+01 -1.56595e+01  4.27072e+01             
       O -5.89096e+01 -2.86883e+01  5.27852e+01             
       H -7.04387e+01 -2.90593e+01  6.54627e+01             
       H -5.31830e+01 -7.44193e+00  6.19695e+01             
       O -9.06872e+01 -1.68345e+01  5.96419e+01             
       H -9.00311e+01 -1.74027e+01  5.92261e+01             
       H -9.00101e+01 -1.65384e+01  6.03159e+01             
       O -5.86060e+01 -2.89338e+01  5.01115e+01             
       H -5.80232e+01 -2.97297e+01  5.01150e+01             
       H -5.98570e+01 -1.31065e+01  5.88178e+01             
       O -6.48971e+01 -9.87339e+00  4.75368e+01             
       H -6.42447e+01 -1.00767e+01  4.68395e+01             
       H -7.84512e+01 -1.89384e+01  2.90091e+01             
       O -7.63496e+01 -2.01499e+01  4.88724e+01             
       H -7.57308e+01 -1.99335e+01  4.81100e+01             
       H -7.57357e+01 -2.03811e+01  4.96330e+01             
       O -5.85934e+01 -2.35140e+01  4.53103e+01             
       H -5.77131e+01 -2.31991e+01  4.55019e+01             
       H -5.83876e+01 -2.42902e+01  4.46848e+01             
       O -4.54453e+01 -2.68964e+01  4.83180e+01             
       H -4.48327e+01 -1.37696e+01  4.85528e+01             
       H -4.48473e+01 -2.73531e+01  4.76911e+01             
       O -6.00992e+01 -1.01177e+01  5.56756e+01             
       H -4.71168e+01 -1.04714e+01  5.63948e+01             
       H -5.94881e+01 -9.68036e+00  5.50846e+01             
       O -5.70445e+01  2.20753e+00  5.23021e+01             
       H -6.23992e+01 -3.22660e+01  4.59693e+01             
       H -6.84967e+01  9.75841e-01  4.94228e+01             
       O -6.95904e+01 -1.73039e+01  4.66877e+01             
       H -6.89442e+01 -1.78960e+01  4.72232e+01             
       H -6.89840e+01 -1.66033e+01  4.64324e+01             
       O -7.10673e+01 -7.97109e+00  3.73784e+01             
       H -7.07774e+01 -2.12676e+01  3.72731e+01             
       H -7.03075e+01 -7.40236e+00  3.77842e+01             
       O -7.52992e+01 -1.83709e+01  5.51496e+01             
       H -7.45254e+01 -1.87205e+01  5.55900e+01             
       H -7.49936e+01 -1.78210e+01  5.43771e+01             
       O -6.67043e+01 -2.09085e+01  5.86306e+01             
       H -6.60979e+01 -2.06878e+01  5.79392e+01             
       H -6.60998e+01 -2.13177e+01  5.93142e+01             
       O -7.70982e+01 -2.08299e+01  4.43883e+01             
       H -7.65676e+01 -2.01246e+01  5.65415e+01             
       H -7.11906e+01 -4.11249e+01  3.93631e+01             
       O -5.47855e+01 -2.22112e+01  6.31783e+01             
       H -5.44582e+01 -2.13531e+01  6.28678e+01             
       H -5.42185e+01 -2.22924e+01  6.39315e+01             
       O -6.03342e+01 -2.01395e+01  5.20796e+01             
       H -5.97282e+01 -2.05796e+01  5.27055e+01             
       H -5.98577e+01 -2.03979e+01  5.13008e+01             
       O -8.56417e+01 -2.23022e+01  5.98545e+01             
       H -8.56469e+01 -2.14099e+01  6.02397e+01             
       H -8.48412e+01 -2.23813e+01  5.93724e+01             
       O -5.82517e+01 -2.09904e+01  5.41362e+01             
       H -5.75273e+01 -2.05770e+01  5.46122e+01             
       H -5.76271e+01 -2.15738e+01  5.36453e+01             
       O -7.75069e+01 -1.27763e+01  2.28916e+01             
       H -7.75838e+01 -1.18238e+01  2.29895e+01             
       H -7.65739e+01 -1.30589e+01  2.28453e+01             
       O -6.66808e+01 -1.84764e+01  2.95326e+01             
       H -4.39726e+01 -9.79862e+00  3.93365e+01             
       H -6.62613e+01 -1.77909e+01  3.01155e+01             
       O -7.10146e+01 -1.32568e+01  5.62403e+01             
       H -7.08085e+01 -1.31418e+01  5.53472e+01             
       H -7.05103e+01 -1.39876e+01  5.64328e+01             
       O -7.32512e+01 -1.48874e+01  6.81466e+01             
       H -7.25262e+01 -1.42895e+01  6.84083e+01             
       H -7.27185e+01 -1.56262e+01  6.78223e+01             
192                                                         
# CELL(abcABC):   12.41850    12.41850    12.41850    90.00000    90.00000    90.00000  Step:      200000  Bead:       0 x_centroid{angstrom}  cell{angstrom}   
       O -8.74214e+01 -1.21595e+01  7.00555e+01             
       H -8.73125e+01 -1.25433e+01  6.91599e+01             
       H -8.65440e+01 -1.20052e+01  7.04153e+01             
       O -7.94070e+01 -1.08254e+01  7.02088e+01             
       H -7.58052e+01 -1.76698e+01  6.38709e+01             
       H -7.95235e+01 -1.07681e+01  7.11773e+01             
       O -8.01672e+01 -2.95610e+01  5.27776e+01             
       H -7.97133e+01 -1.79971e+01  5.25722e+01             
       H -7.94679e+01 -2.90287e+01  5.32247e+01             
       O -7.81830e+01 -2.78963e+01  5.72562e+01             
       H -7.75563e+01 -2.76209e+01  5.79273e+01             
       H -7.75473e+01 -2.80248e+01  5.64711e+01             
       O -6.62605e+01 -2.62568e+01  6.07289e+01             
       H -6.58015e+01 -2.63005e+01  6.15900e+01             
       H -6.54781e+01 -2.61845e+01  6.01168e+01             
       O -6.58667e+01 -2.06125e+01  7.19092e+01             
       H -6.53529e+01 -2.01400e+01  7.12280e+01             
       H -6.52483e+01 -2.12388e+01  7.23238e+01             
       O -7.93147e+01 -2.30467e+01  4.90597e+01             
       H -7.87170e+01 -2.24433e+01  4.94371e+01             
       H -7.01162e+01 -3.15517e+00  5.85791e+01             
       O -6.69597e+01 -1.93263e+01  7.60961e+01             
       H -6.62344e+01 -2.00329e+01  7.60399e+01             
       H -6.67680e+01 -3.10782e+01  7.53695e+01             
       O -8.86807e+01 -1.52876e+01  5.52131e+01             
       H -8.78876e+01 -1.45715e+01  5.53383e+01             
       H -8.81473e+01 -1.60812e+01  5.52730e+01             
       O -7.70490e+01 -3.14123e+01  5.77465e+01             
       H -7.66745e+01 -3.05363e+01  5.80546e+01             
       H -7.62542e+01 -3.19203e+01  5.75149e+01             
       O -8.44440e+01 -1.04052e+01  6.61651e+01             
       H -8.39651e+01 -1.08181e+01  6.68980e+01             
       H -8.36294e+01 -1.03504e+01  6.55874e+01             
       O -8.22314e+01 -1.35743e+01  5.50757e+01             
       H -8.18532e+01 -1.34352e+01  5.41587e+01             
       H -6.97045e+01 -2.09117e+01  5.15004e+01             
       O -7.59173e+01 -3.47368e+01  5.27285e+01             
       H -7.52225e+01 -3.54129e+01  5.27331e+01             
       H -7.29079e+01 -3.08883e+01  6.30958e+01             
       O -8.81931e+01 -1.67517e+01  5.86536e+01             
       H -8.79525e+01 -1.67686e+01  5.96200e+01             
       H -8.73393e+01 -1.68185e+01  5.81231e+01             
       O -6.67717e+01 -2.52581e+01  6.55740e+01             
       H -6.60380e+01 -2.47748e+01  6.60254e+01             
       H -6.65047e+01 -2.61908e+01  6.55964e+01             
       O -7.99940e+01 -1.73140e+01  6.91538e+01             
       H -7.91989e+01 -1.68385e+01  6.93689e+01             
       H -7.97297e+01 -1.81040e+01  6.86126e+01             
       O -8.24717e+01 -1.38793e+01  5.21964e+01             
       H -8.22518e+01 -2.70245e+01  5.15623e+01             
       H -8.19940e+01 -1.31369e+01  5.18158e+01             
       O -8.15459e+01 -2.92892e+01  4.64661e+01             
       H -8.09243e+01 -2.92366e+01  4.72205e+01             
       H -8.10400e+01 -2.95059e+01  4.56651e+01             
       O -8.88768e+01 -1.39914e+01  5.91616e+01             
       H -8.81417e+01 -1.47399e+01  5.92846e+01             
       H -8.83939e+01 -1.32905e+01  5.87226e+01             
       O -8.07478e+01  3.75164e-01  5.12945e+01             
       H -5.79658e+01 -1.91558e+01  5.54138e+01             
       H -8.04328e+01  6.40992e-01  5.04268e+01             
       O -7.28638e+01 -1.68395e+01  6.55708e+01             
       H -7.76042e+01 -2.53177e+01  6.36430e+01             
       H -8.48906e+01 -1.64581e+01  6.63945e+01             
       O -7.61332e+01 -3.46112e+01  6.06805e+01             
       H -7.55747e+01 -3.42406e+01  5.99317e+01             
       H -7.58259e+01 -3.55069e+01  6.08174e+01             
       O -8.77772e+01 -2.47172e+01  6.13212e+01             
       H -8.79773e+01 -2.55150e+01  6.07777e+01             
       H -8.68655e+01 -2.47825e+01  6.16767e+01             
       O -7.33488e+01 -4.54161e+01  5.44364e+01             
       H -7.26472e+01 -4.50347e+01  5.50017e+01             
       H -7.30417e+01 -4.62609e+01  6.65851e+01             
       O -7.48621e+01 -5.19405e+00  5.45971e+01             
       H -7.44306e+01 -5.26101e+00  5.54710e+01             
       H -7.41368e+01 -4.98147e+00  5.39248e+01             
       O -7.43739e+01 -2.59352e+01  6.79346e+01             
       H -7.35273e+01 -2.63210e+01  6.81927e+01             
       H -7.42288e+01 -2.54122e+01  6.71179e+01             
       O -7.98943e+01 -2.89302e+01  7.33239e+01             
       H -7.94960e+01 -2.79956e+01  7.34071e+01             
       H -7.90802e+01 -2.95002e+01  7.32462e+01             
       O -9.35867e+01 -2.18461e+01  5.59309e+01             
       H -9.28065e+01 -2.17425e+01  5.52755e+01             
       H -9.32427e+01 -2.19813e+01  5.67988e+01             
       O -7.12688e+01 -6.30721e+00  7.06355e+01             
       H -7.06104e+01 -5.74105e+00  7.11359e+01             
       H -7.08792e+01 -6.81493e+00  6.98987e+01             
       O -7.48430e+01 -1.65249e+01  4.87217e+01             
       H -7.45033e+01 -1.73302e+01  4.90966e+01             
       H -7.40373e+01 -1.59036e+01  3.61928e+01             
       O -7.41272e+01 -2.16893e+01  3.42341e+01             
       H -7.34551e+01 -2.23912e+01  3.39596e+01             
       H -8.59367e+01 -2.09893e+01  3.47092e+01             
       O -6.27061e+01 -2.06867e+01  3.19166e+01             
       H -6.22443e+01 -2.06138e+01  3.10882e+01             
       H -6.20417e+01 -2.10282e+01  3.25875e+01             
       O -7.21117e+01 -2.71265e+01  4.37124e+01             
       H -7.13575e+01 -2.69141e+01  4.30822e+01             
       H -7.16932e+01 -2.70348e+01  5.70332e+01             
       O -7.34660e+01 -1.71649e+01  4.47228e+01             
       H -7.37050e+01 -1.28162e+01  5.26942e+01             
       H -7.28224e+01 -1.77848e+01  4.51620e+01             
       O -7.29607e+01 -2.71555e+01  6.02650e+01             
       H -7.21281e+01 -2.72288e+01  5.97203e+01             
       H -7.29134e+01 -2.65079e+01  6.09282e+01             
       O -6.55187e+01 -1.82739e+01  4.89972e+01             
       H -6.46301e+01 -1.79523e+01  4.92874e+01             
       H -6.54332e+01 -1.88318e+01  4.82451e+01             
       O -6.72243e+01 -3.36082e+01  5.38948e+01             
       H -6.68629e+01 -3.26934e+01  5.41382e+01             
       H -6.63891e+01 -3.41991e+01  5.39696e+01             
       O -7.81721e+01 -3.08876e+00  6.58228e+01             
       H -7.74451e+01 -3.23223e+00  6.64160e+01             
       H -7.78411e+01 -3.47741e+00  6.50050e+01             
       O -7.03324e+01  3.63301e+00  7.34032e+01             
       H -7.00444e+01  3.97591e+00  7.42928e+01             
       H -6.97621e+01  3.97469e+00  7.26877e+01             
       O -7.36815e+01 -3.12285e+01  6.26394e+01             
       H -7.87108e+01 -2.37810e+01  4.87573e+01             
       H -7.32959e+01 -3.17328e+01  6.18559e+01             
       O -7.62971e+01 -1.69903e+01  6.35496e+01             
       H -7.28864e+01 -1.65895e+01  4.42306e+01             
       H -7.57045e+01 -1.65597e+01  6.29039e+01             
       O -6.96106e+01 -2.02038e+01  5.08839e+01             
       H -8.00673e+01 -1.23069e+01  5.19864e+01             
       H -6.86407e+01 -1.99121e+01  5.09530e+01             
       O -6.85456e+01 -3.28584e+01  5.90160e+01             
       H -7.99458e+01 -3.29050e+01  7.15714e+01             
       H -6.60511e+01 -1.06948e+01  7.00324e+01             
       O -1.03128e+02 -1.91458e+01  6.74628e+01             
       H -1.02406e+02 -1.86412e+01  6.71399e+01             
       H -1.02824e+02 -1.93656e+01  6.83823e+01             
       O -7.06237e+01 -3.23554e+01  5.59463e+01             
       H -6.98921e+01 -3.29993e+01  5.58745e+01             
       H -7.20841e+01 -1.72925e+01  6.50551e+01             
       O -7.41040e+01 -1.21081e+01  5.31850e+01             
       H -7.33008e+01 -1.15069e+01  5.33064e+01             
       H -8.93546e+01 -2.15081e+01  3.74021e+01             
       O -8.94671e+01 -2.28574e+01  5.70092e+01             
       H -8.89765e+01 -2.19688e+01  5.68836e+01             
       H -8.87062e+01 -2.33995e+01  5.73269e+01             
       O -7.11900e+01 -3.06125e+01  5.16114e+01             
       H -7.05515e+01 -3.13904e+01  5.14924e+01             
       H -7.06670e+01 -2.98765e+01  5.13644e+01             
       O -5.74165e+01 -2.97133e+01  5.47870e+01             
       H -5.70366e+01 -1.71758e+01  5.56512e+01             
       H -5.68046e+01 -2.96784e+01  5.40344e+01             
       O -7.27173e+01 -1.27562e+01  6.22230e+01             
       H -5.99945e+01 -1.33482e+01  6.29928e+01             
       H -7.18991e+01 -1.24422e+01  6.16630e+01             
       O -7.06175e+01 -2.26771e+00  5.84941e+01             
       H -7.55486e+01 -3.38427e+01  5.27108e+01             
       H -8.15107e+01 -1.10138e+00  5.57804e+01             
       O -8.20975e+01 -2.24597e+01  5.25733e+01             
       H -8.16524e+01 -2.30489e+01  5.19680e+01             
       H -8.13497e+01 -2.21713e+01  5.31596e+01             
       O -8.31547e+01 -1.12126e+01  4.35618e+01             
       H -8.28444e+01 -2.45208e+01  4.32924e+01             
       H -8.24034e+01 -1.05884e+01  4.35726e+01             
       O -8.76562e+01 -1.99364e+01  6.47735e+01             
       H -8.70632e+01 -1.96353e+01  6.55335e+01             
       H -8.72659e+01 -1.97823e+01  6.39075e+01             
       O -7.76516e+01 -2.32301e+01  6.67751e+01             
       H -7.68724e+01 -2.30004e+01  6.61997e+01             
       H -7.73478e+01 -2.31300e+01  6.77726e+01             
       O -8.95512e+01 -2.59669e+01  5.07372e+01             
       H -8.87733e+01 -2.56486e+01  6.27034e+01             
       H -8.12440e+01 -4.43846e+01  4.64143e+01             
       O -6.84588e+01 -2.53113e+01  7.21047e+01             
       H -6.76144e+01 -2.55088e+01  7.25328e+01             
       H -6.82663e+01 -2.55165e+01  7.11591e+01             
       O -7.24857e+01 -2.36885e+01  5.80941e+01             
       H -7.18585e+01 -2.37896e+01  5.88003e+01             
       H -7.19478e+01 -2.35862e+01  5.72338e+01             
       O -9.75117e+01 -2.65573e+01  6.47446e+01             
       H -9.65333e+01 -2.65025e+01  6.48922e+01             
       H -9.77474e+01 -2.74726e+01  6.48118e+01             
       O -7.08729e+01 -2.40899e+01  6.03255e+01             
       H -7.07106e+01 -2.31701e+01  6.06622e+01             
       H -6.99966e+01 -2.44949e+01  6.03044e+01             
       O -9.25712e+01 -1.32412e+01  3.20769e+01             
       H -9.22161e+01 -1.23547e+01  3.23365e+01             
       H -9.19159e+01 -1.39028e+01  3.21937e+01             
       O -7.74421e+01 -2.13439e+01  3.82060e+01             
       H -5.75703e+01 -1.41134e+01  4.65320e+01             
       H -7.68550e+01 -2.17323e+01  3.89287e+01             
       O -8.17395e+01 -1.61046e+01  6.31815e+01             
       H -8.11077e+01 -1.64529e+01  6.38280e+01             
       H -8.11676e+01 -1.61408e+01  6.23765e+01             
       O -8.49585e+01 -2.00228e+01  7.26762e+01             
       H -8.44543e+01 -1.94114e+01  7.20657e+01             
       H -8.41701e+01 -2.05527e+01  7.29786e+01             
