12                                                          
# CELL(abcABC):  100.00000   100.00000   100.00000    90.00000    90.00000    90.00000  Step:           0  Bead:       0 x_centroid{angstrom}  cell{angstrom}   
       C -2.73857e-01  2.37266e+00  1.72169e-01             
       C -3.61225e-01  8.82561e-01 -7.46913e-02             
       O -1.35881e+00  3.07185e-01 -5.00399e-01             
       N  7.01734e-01  1.28279e-01  3.62956e-01             
       C  7.97654e-01 -1.29908e+00  1.07509e-01             
       H  7.35871e-01  2.61871e+00  6.71119e-01             
       H -2.48109e-01  2.84302e+00 -8.48727e-01             
       H -1.11334e+00  2.71323e+00  7.83614e-01             
       H  2.81183e-01 -1.94693e+00  8.56636e-01             
       H  2.06221e-01 -1.47346e+00 -8.48424e-01             
       H  1.79064e+00 -1.70186e+00 -1.72827e-01             
       H  1.42396e+00  3.94411e-01  1.01503e+00             
12                                                          
# CELL(abcABC):  100.00000   100.00000   100.00000    90.00000    90.00000    90.00000  Step:      250000  Bead:       0 x_centroid{angstrom}  cell{angstrom}   
       C -2.51233e+01 -1.17620e+01 -1.10086e+01             
       C -2.45291e+01 -1.31782e+01 -1.13903e+01             
       O -2.35322e+01 -1.32445e+01 -1.21517e+01             
       N -2.52552e+01 -1.42886e+01 -1.10683e+01             
       C -2.47790e+01 -1.56945e+01 -1.13020e+01             
       H -2.61045e+01 -1.19028e+01 -1.04166e+01             
       H -2.43634e+01 -1.12658e+01 -1.03714e+01             
       H -2.52370e+01 -1.12958e+01 -1.19789e+01             
       H -2.36875e+01 -1.57964e+01 -1.09918e+01             
       H -2.53441e+01 -1.64299e+01 -1.06528e+01             
       H -2.48398e+01 -1.59112e+01 -1.23644e+01             
       H -2.60996e+01 -1.41824e+01 -1.04581e+01             
