12                                                          
# CELL(abcABC):  100.00000   100.00000   100.00000    90.00000    90.00000    90.00000  Step:           0  Bead:       0 x_centroid{angstrom}  cell{angstrom}   
       C -5.88166e-01  1.00707e+00 -1.78084e+00             
       C -1.13330e-01  8.25768e-01 -3.58482e-01             
       O  3.88007e-01  1.76647e+00  3.04880e-01             
       N -2.81737e-01 -4.12868e-01  2.48834e-01             
       C  1.16131e-01 -8.53411e-01  1.60535e+00             
       H -5.99619e-01  2.08951e+00 -1.90746e+00             
       H  1.88754e-01  6.51185e-01 -2.38481e+00             
       H -1.55119e+00  5.98146e-01 -2.01034e+00             
       H  1.03710e+00 -1.40625e+00  1.54429e+00             
       H  3.53286e-01  3.94714e-02  2.18974e+00             
       H -6.79162e-01 -1.50414e+00  1.93827e+00             
       H -8.28000e-01 -1.03489e+00 -3.11249e-01             
12                                                          
# CELL(abcABC):  100.00000   100.00000   100.00000    90.00000    90.00000    90.00000  Step:      250000  Bead:       0 x_centroid{angstrom}  cell{angstrom}   
       C -5.17417e+01 -2.83660e+01 -2.39208e+01             
       C -5.04027e+01 -2.84714e+01 -2.34298e+01             
       O -4.98299e+01 -2.95833e+01 -2.33664e+01             
       N -4.97374e+01 -2.73256e+01 -2.29021e+01             
       C -4.84549e+01 -2.74389e+01 -2.22715e+01             
       H -5.21902e+01 -2.94059e+01 -2.39017e+01             
       H -5.24301e+01 -2.77214e+01 -2.33918e+01             
       H -5.18246e+01 -2.81281e+01 -2.49893e+01             
       H -4.85266e+01 -2.73736e+01 -2.11864e+01             
       H -4.79396e+01 -2.83878e+01 -2.25418e+01             
       H -4.78380e+01 -2.66116e+01 -2.25000e+01             
       H -5.03485e+01 -2.65200e+01 -2.27813e+01             
