12                                                          
# CELL(abcABC):  100.00000   100.00000   100.00000    90.00000    90.00000    90.00000  Step:           0  Bead:       0 x_centroid{angstrom}  cell{angstrom}   
       C -7.83150e-01 -5.17775e-01 -2.29985e+00             
       C -1.55112e+00 -5.95391e-01 -9.91856e-01             
       O -1.07589e+00 -4.56041e-01  1.30244e-01             
       N -2.92109e+00 -7.85035e-01 -1.20679e+00             
       C -3.91895e+00 -9.84320e-01 -1.59539e-01             
       H -2.71562e-01 -1.48589e+00 -2.53846e+00             
       H -1.40652e+00 -2.04453e-01 -3.20915e+00             
       H -7.32737e-02  2.81543e-01 -2.08465e+00             
       H -3.69922e+00 -3.37104e-01  7.07094e-01             
       H -4.89139e+00 -6.73490e-01 -5.90704e-01             
       H -4.04273e+00 -1.99615e+00  2.95577e-01             
       H -3.15003e+00 -1.17749e+00 -2.10241e+00             
12                                                          
# CELL(abcABC):  100.00000   100.00000   100.00000    90.00000    90.00000    90.00000  Step:      250000  Bead:       0 x_centroid{angstrom}  cell{angstrom}   
       C -3.64410e+01 -1.95873e+01 -1.48711e+01             
       C -3.58511e+01 -2.01158e+01 -1.61760e+01             
       O -3.47099e+01 -2.05606e+01 -1.63369e+01             
       N -3.66588e+01 -2.00428e+01 -1.72334e+01             
       C -3.62074e+01 -2.05139e+01 -1.85349e+01             
       H -3.63290e+01 -2.03446e+01 -1.39721e+01             
       H -3.56937e+01 -1.87848e+01 -1.45485e+01             
       H -3.74157e+01 -1.91431e+01 -1.48651e+01             
       H -3.70771e+01 -2.08384e+01 -1.90940e+01             
       H -3.58119e+01 -1.96165e+01 -1.90389e+01             
       H -3.53431e+01 -2.12380e+01 -1.84795e+01             
       H -3.74739e+01 -1.94374e+01 -1.71955e+01             
