12                                                          
# CELL(abcABC):  100.00000   100.00000   100.00000    90.00000    90.00000    90.00000  Step:           0  Bead:       0 x_centroid{angstrom}  cell{angstrom}   
       C -1.89294e+00 -9.17504e-02  1.29432e-01             
       C -4.76682e-01  4.18501e-01  3.00841e-01             
       O -8.42367e-02  8.67723e-01  1.38483e+00             
       N  3.15483e-01  2.14353e-01 -7.55611e-01             
       C  1.61856e+00  8.75130e-01 -9.21736e-01             
       H -1.71621e+00 -1.19773e+00 -6.32137e-02             
       H -2.57361e+00  1.91113e-01  9.34211e-01             
       H -2.34984e+00  2.47491e-01 -8.03321e-01             
       H  2.04624e+00  3.42503e-01 -1.83221e+00             
       H  1.44666e+00  1.95538e+00 -1.19064e+00             
       H  2.33381e+00  7.93792e-01 -4.04427e-02             
       H -9.63394e-02  1.54008e-03 -1.63587e+00             
12                                                          
# CELL(abcABC):  100.00000   100.00000   100.00000    90.00000    90.00000    90.00000  Step:      250000  Bead:       0 x_centroid{angstrom}  cell{angstrom}   
       C -4.68050e+01 -2.79371e+01 -2.06111e+01             
       C -4.64351e+01 -2.66896e+01 -2.14668e+01             
       O -4.52470e+01 -2.65698e+01 -2.18109e+01             
       N -4.73978e+01 -2.57632e+01 -2.17085e+01             
       C -4.72072e+01 -2.44841e+01 -2.23332e+01             
       H -4.62785e+01 -2.78110e+01 -1.96160e+01             
       H -4.78588e+01 -2.81081e+01 -2.03632e+01             
       H -4.63712e+01 -2.88477e+01 -2.10403e+01             
       H -4.75961e+01 -2.36917e+01 -2.17396e+01             
       H -4.61257e+01 -2.43920e+01 -2.23681e+01             
       H -4.75888e+01 -2.43651e+01 -2.33642e+01             
       H -4.83388e+01 -2.59692e+01 -2.14205e+01             
