12                                                          
# CELL(abcABC):  100.00000   100.00000   100.00000    90.00000    90.00000    90.00000  Step:           0  Bead:       0 x_centroid{angstrom}  cell{angstrom}   
       C -4.07493e-01 -7.01734e-01 -1.72629e+00             
       C -1.70157e+00 -7.61595e-01 -8.61078e-01             
       O -1.72821e+00 -5.95554e-01  3.31052e-01             
       N -2.84068e+00 -1.00391e+00 -1.53087e+00             
       C -4.07046e+00 -6.03835e-01 -9.25670e-01             
       H  4.63591e-01 -5.06162e-01 -1.05903e+00             
       H -3.69803e-01 -1.64984e+00 -2.23796e+00             
       H -3.43666e-01  8.66055e-02 -2.47627e+00             
       H -4.36401e+00  3.81755e-01 -1.37175e+00             
       H -4.84486e+00 -1.35039e+00 -1.26587e+00             
       H -4.04942e+00 -6.26093e-01  1.56425e-01             
       H -2.87088e+00 -1.17413e+00 -2.56007e+00             
12                                                          
# CELL(abcABC):  100.00000   100.00000   100.00000    90.00000    90.00000    90.00000  Step:      250000  Bead:       0 x_centroid{angstrom}  cell{angstrom}   
       C -4.33648e+01 -2.36968e+01 -2.11274e+01             
       C -4.41275e+01 -2.49004e+01 -2.05608e+01             
       O -4.36597e+01 -2.56878e+01 -1.97026e+01             
       N -4.54057e+01 -2.50765e+01 -2.11077e+01             
       C -4.63076e+01 -2.61916e+01 -2.07139e+01             
       H -4.31659e+01 -2.29487e+01 -2.02918e+01             
       H -4.24041e+01 -2.38383e+01 -2.15563e+01             
       H -4.38706e+01 -2.31236e+01 -2.19445e+01             
       H -4.67502e+01 -2.67286e+01 -2.15986e+01             
       H -4.57477e+01 -2.67947e+01 -1.99948e+01             
       H -4.72337e+01 -2.57725e+01 -2.01266e+01             
       H -4.56951e+01 -2.43267e+01 -2.17283e+01             
