12                                                          
# CELL(abcABC):  100.00000   100.00000   100.00000    90.00000    90.00000    90.00000  Step:           0  Bead:       0 x_centroid{angstrom}  cell{angstrom}   
       C  1.55095e+00  2.68433e-01  1.00147e+00             
       C  3.78328e-01  6.03039e-01  8.34815e-02             
       O  4.76141e-01  1.40122e+00 -8.34153e-01             
       N -7.79847e-01 -1.28219e-01  2.16959e-01             
       C -2.01189e+00  1.51015e-01 -4.04878e-01             
       H  1.53107e+00  9.96317e-01  1.80888e+00             
       H  1.44089e+00 -6.62499e-01  1.52617e+00             
       H  2.49487e+00  3.21521e-01  4.71036e-01             
       H -2.82912e+00 -1.23620e-02  3.04396e-01             
       H -2.11796e+00  1.20895e+00 -6.81568e-01             
       H -2.14347e+00 -4.05940e-01 -1.34389e+00             
       H -9.18045e-01 -6.83602e-01  1.04139e+00             
12                                                          
# CELL(abcABC):  100.00000   100.00000   100.00000    90.00000    90.00000    90.00000  Step:      250000  Bead:       0 x_centroid{angstrom}  cell{angstrom}   
       C -2.00106e+01 -1.21452e+01 -9.41379e+00             
       C -1.91802e+01 -1.09841e+01 -8.85885e+00             
       O -1.83398e+01 -1.11109e+01 -7.93192e+00             
       N -1.94892e+01 -9.68245e+00 -9.35474e+00             
       C -1.87607e+01 -8.61336e+00 -8.66806e+00             
       H -1.93261e+01 -1.27533e+01 -1.00738e+01             
       H -2.02807e+01 -1.27724e+01 -8.48371e+00             
       H -2.09435e+01 -1.18735e+01 -9.94217e+00             
       H -1.76742e+01 -8.63570e+00 -8.89296e+00             
       H -1.91720e+01 -7.60772e+00 -9.03355e+00             
       H -1.89345e+01 -8.78187e+00 -7.54061e+00             
       H -2.03366e+01 -9.49487e+00 -9.86827e+00             
