12                                                          
# CELL(abcABC):  100.00000   100.00000   100.00000    90.00000    90.00000    90.00000  Step:           0  Bead:       0 x_centroid{angstrom}  cell{angstrom}   
       C -3.98961e-01 -1.24574e+00 -1.06997e+00             
       C -1.85634e+00 -8.15564e-01 -7.88963e-01             
       O -2.27158e+00 -6.26953e-01  3.56788e-01             
       N -2.69518e+00 -7.72033e-01 -1.80690e+00             
       C -4.06337e+00 -4.93838e-01 -1.63435e+00             
       H  2.93964e-01 -5.11136e-01 -5.35674e-01             
       H -1.70803e-01 -2.29508e+00 -8.09256e-01             
       H -2.32184e-01 -1.19053e+00 -2.19461e+00             
       H -4.41916e+00  2.76718e-01 -2.31450e+00             
       H -4.60755e+00 -1.39945e+00 -1.89098e+00             
       H -4.21873e+00 -1.00081e-01 -6.44536e-01             
       H -2.36709e+00 -8.98023e-01 -2.76332e+00             
12                                                          
# CELL(abcABC):  100.00000   100.00000   100.00000    90.00000    90.00000    90.00000  Step:      250000  Bead:       0 x_centroid{angstrom}  cell{angstrom}   
       C -3.58386e+01 -1.78923e+01 -1.58544e+01             
       C -3.48064e+01 -1.90417e+01 -1.56885e+01             
       O -3.42265e+01 -1.92375e+01 -1.46402e+01             
       N -3.46714e+01 -1.98081e+01 -1.68554e+01             
       C -3.37334e+01 -2.09790e+01 -1.70738e+01             
       H -3.68323e+01 -1.83631e+01 -1.56897e+01             
       H -3.56010e+01 -1.70807e+01 -1.50236e+01             
       H -3.57826e+01 -1.74753e+01 -1.68400e+01             
       H -3.27546e+01 -2.06647e+01 -1.74052e+01             
       H -3.36039e+01 -2.14858e+01 -1.61188e+01             
       H -3.41695e+01 -2.16475e+01 -1.77742e+01             
       H -3.51886e+01 -1.94525e+01 -1.76417e+01             
