12                                                          
# CELL(abcABC):  100.00000   100.00000   100.00000    90.00000    90.00000    90.00000  Step:           0  Bead:       0 x_centroid{angstrom}  cell{angstrom}   
       C -1.57403e+00 -7.23701e-01 -2.64366e+00             
       C -2.40663e+00 -1.23586e+00 -1.40004e+00             
       O -2.08915e+00 -1.88813e+00 -4.09742e-01             
       N -3.74566e+00 -8.05122e-01 -1.52959e+00             
       C -4.79510e+00 -1.21308e+00 -5.61043e-01             
       H -7.45030e-01 -1.39552e+00 -2.93599e+00             
       H -2.27352e+00 -6.16633e-01 -3.48770e+00             
       H -1.07687e+00  2.43852e-01 -2.37531e+00             
       H -5.45539e+00 -1.92295e+00 -1.06183e+00             
       H -4.28267e+00 -1.73931e+00  2.51692e-01             
       H -5.27963e+00 -3.41544e-01 -7.37667e-02             
       H -4.13302e+00 -3.74222e-01 -2.42286e+00             
12                                                          
# CELL(abcABC):  100.00000   100.00000   100.00000    90.00000    90.00000    90.00000  Step:      250000  Bead:       0 x_centroid{angstrom}  cell{angstrom}   
       C -2.32855e+01 -1.21026e+01 -8.96134e+00             
       C -2.29768e+01 -1.25679e+01 -1.03649e+01             
       O -2.19659e+01 -1.22293e+01 -1.09958e+01             
       N -2.38671e+01 -1.33745e+01 -1.09072e+01             
       C -2.39580e+01 -1.38304e+01 -1.23053e+01             
       H -2.26262e+01 -1.28059e+01 -8.31884e+00             
       H -2.29033e+01 -1.10871e+01 -8.91760e+00             
       H -2.43039e+01 -1.21688e+01 -8.73349e+00             
       H -2.38769e+01 -1.30391e+01 -1.29841e+01             
       H -2.32244e+01 -1.45408e+01 -1.26610e+01             
       H -2.49289e+01 -1.43401e+01 -1.24671e+01             
       H -2.47097e+01 -1.35988e+01 -1.03706e+01             
