12                                                          
# CELL(abcABC):  100.00000   100.00000   100.00000    90.00000    90.00000    90.00000  Step:           0  Bead:       0 x_centroid{angstrom}  cell{angstrom}   
       C -3.09462e+00 -1.14440e+00 -2.32188e+00             
       C -2.02066e+00 -8.38515e-01 -1.27916e+00             
       O -1.00220e+00 -1.53291e+00 -1.24631e+00             
       N -2.27963e+00  9.69657e-02 -3.18900e-01             
       C -1.46790e+00  3.28391e-01  8.17338e-01             
       H -2.74661e+00 -1.35705e+00 -3.38631e+00             
       H -3.47278e+00 -2.13704e+00 -2.05822e+00             
       H -3.90100e+00 -4.39590e-01 -2.43488e+00             
       H -4.24845e-01  6.71404e-01  5.64106e-01             
       H -1.92894e+00  1.13998e+00  1.44870e+00             
       H -1.37497e+00 -6.77151e-01  1.40598e+00             
       H -3.14299e+00  6.24342e-01 -3.88697e-01             
12                                                          
# CELL(abcABC):  100.00000   100.00000   100.00000    90.00000    90.00000    90.00000  Step:      250000  Bead:       0 x_centroid{angstrom}  cell{angstrom}   
       C -3.29264e+01 -1.85432e+01 -1.72148e+01             
       C -3.28684e+01 -1.86070e+01 -1.56988e+01             
       O -3.18228e+01 -1.89112e+01 -1.51489e+01             
       N -3.39839e+01 -1.82285e+01 -1.50535e+01             
       C -3.41441e+01 -1.84106e+01 -1.35884e+01             
       H -3.19490e+01 -1.87641e+01 -1.76812e+01             
       H -3.36472e+01 -1.92929e+01 -1.75911e+01             
       H -3.32703e+01 -1.76373e+01 -1.76990e+01             
       H -3.51270e+01 -1.86961e+01 -1.32830e+01             
       H -3.33659e+01 -1.91314e+01 -1.33265e+01             
       H -3.38874e+01 -1.75005e+01 -1.30353e+01             
       H -3.47061e+01 -1.78852e+01 -1.56212e+01             
