12                                                          
# CELL(abcABC):  100.00000   100.00000   100.00000    90.00000    90.00000    90.00000  Step:           0  Bead:       0 x_centroid{angstrom}  cell{angstrom}   
       C -2.79378e+00 -1.55156e+00 -1.27362e+00             
       C -1.61578e+00 -6.46993e-01 -9.42164e-01             
       O -6.42298e-01 -6.54233e-01 -1.65963e+00             
       N -1.65980e+00  1.27230e-01  1.96843e-01             
       C -6.33589e-01  1.06541e+00  5.27495e-01             
       H -3.73844e+00 -9.10587e-01 -1.35926e+00             
       H -2.57655e+00 -2.03575e+00 -2.26631e+00             
       H -2.82644e+00 -2.40052e+00 -5.13645e-01             
       H  2.92002e-01  5.24502e-01  2.96417e-01             
       H -7.63491e-01  2.11439e+00  1.08886e-02             
       H -5.34341e-01  1.20220e+00  1.65923e+00             
       H -2.46158e+00  4.98805e-02  8.69781e-01             
12                                                          
# CELL(abcABC):  100.00000   100.00000   100.00000    90.00000    90.00000    90.00000  Step:      250000  Bead:       0 x_centroid{angstrom}  cell{angstrom}   
       C -3.88922e+01 -2.26690e+01 -1.99760e+01             
       C -3.98519e+01 -2.26205e+01 -1.87690e+01             
       O -3.92371e+01 -2.27484e+01 -1.76830e+01             
       N -4.12395e+01 -2.26055e+01 -1.89464e+01             
       C -4.22779e+01 -2.26148e+01 -1.79252e+01             
       H -3.92834e+01 -2.24343e+01 -2.10264e+01             
       H -3.80684e+01 -2.19251e+01 -1.97373e+01             
       H -3.84409e+01 -2.36621e+01 -1.99744e+01             
       H -4.28621e+01 -2.16458e+01 -1.78868e+01             
       H -4.30217e+01 -2.33685e+01 -1.82697e+01             
       H -4.18879e+01 -2.29074e+01 -1.69083e+01             
       H -4.15738e+01 -2.23927e+01 -1.98638e+01             
