12                                                          
# CELL(abcABC):  100.00000   100.00000   100.00000    90.00000    90.00000    90.00000  Step:           0  Bead:       0 x_centroid{angstrom}  cell{angstrom}   
       C -8.35061e-02  2.32093e+00 -8.94129e-02             
       C  1.94757e-01  8.22676e-01 -9.09487e-03             
       O  1.30657e+00  4.19893e-01  1.85984e-01             
       N -9.41259e-01  1.04040e-01 -1.05407e-01             
       C -9.21211e-01 -1.30884e+00  7.05430e-02             
       H -1.06867e+00  2.57498e+00 -4.88939e-01             
       H  1.16133e-01  2.71419e+00  9.06347e-01             
       H  7.03179e-01  2.72151e+00 -8.04228e-01             
       H -1.85225e+00 -1.84913e+00 -2.42005e-01             
       H -8.08957e-02 -1.74945e+00 -4.76042e-01             
       H -8.69337e-01 -1.66845e+00  1.08449e+00             
       H -1.76825e+00  6.96485e-01 -1.35991e-01             
12                                                          
# CELL(abcABC):  100.00000   100.00000   100.00000    90.00000    90.00000    90.00000  Step:      250000  Bead:       0 x_centroid{angstrom}  cell{angstrom}   
       C -6.71107e+01 -3.82305e+01 -2.90841e+01             
       C -6.65158e+01 -3.79355e+01 -3.05108e+01             
       O -6.53854e+01 -3.75247e+01 -3.06496e+01             
       N -6.74766e+01 -3.79937e+01 -3.14853e+01             
       C -6.73809e+01 -3.76386e+01 -3.29542e+01             
       H -6.82439e+01 -3.84224e+01 -2.89464e+01             
       H -6.65911e+01 -3.91731e+01 -2.87804e+01             
       H -6.66840e+01 -3.75719e+01 -2.84008e+01             
       H -6.67768e+01 -3.67618e+01 -3.30483e+01             
       H -6.69071e+01 -3.84424e+01 -3.35199e+01             
       H -6.84005e+01 -3.74561e+01 -3.33025e+01             
       H -6.83821e+01 -3.84399e+01 -3.12669e+01             
