12                                                          
# CELL(abcABC):  100.00000   100.00000   100.00000    90.00000    90.00000    90.00000  Step:           0  Bead:       0 x_centroid{angstrom}  cell{angstrom}   
       C -5.26732e+00 -6.74939e-01 -2.62416e+00             
       C -4.08971e+00 -1.47140e+00 -2.07330e+00             
       O -3.02846e+00 -1.35477e+00 -2.71425e+00             
       N -4.22551e+00 -2.24410e+00 -9.97554e-01             
       C -3.07004e+00 -2.93944e+00 -4.69508e-01             
       H -5.94044e+00 -2.58355e-01 -1.81784e+00             
       H -4.91550e+00  1.40095e-01 -3.22398e+00             
       H -5.97095e+00 -1.26419e+00 -3.19958e+00             
       H -2.12261e+00 -2.56513e+00 -8.87300e-01             
       H -2.93651e+00 -2.79330e+00  5.74311e-01             
       H -3.13621e+00 -4.09547e+00 -5.38817e-01             
       H -5.12593e+00 -2.35764e+00 -5.47958e-01             
12                                                          
# CELL(abcABC):  100.00000   100.00000   100.00000    90.00000    90.00000    90.00000  Step:      250000  Bead:       0 x_centroid{angstrom}  cell{angstrom}   
       C -2.40032e+01 -1.28323e+01 -1.29261e+01             
       C -2.38684e+01 -1.29061e+01 -1.13866e+01             
       O -2.32735e+01 -1.20909e+01 -1.06701e+01             
       N -2.43187e+01 -1.40715e+01 -1.09173e+01             
       C -2.44539e+01 -1.44129e+01 -9.52983e+00             
       H -2.30406e+01 -1.30969e+01 -1.34509e+01             
       H -2.49413e+01 -1.32674e+01 -1.34093e+01             
       H -2.40616e+01 -1.17744e+01 -1.31914e+01             
       H -2.42334e+01 -1.54737e+01 -9.21265e+00             
       H -2.37538e+01 -1.37858e+01 -8.91885e+00             
       H -2.54784e+01 -1.42375e+01 -9.21285e+00             
       H -2.46468e+01 -1.48032e+01 -1.15983e+01             
