12                                                          
# CELL(abcABC):  100.00000   100.00000   100.00000    90.00000    90.00000    90.00000  Step:           0  Bead:       0 x_centroid{angstrom}  cell{angstrom}   
       C -7.30941e-01  2.24190e+00 -1.19660e-01             
       C -3.37172e-02  9.41549e-01 -3.36425e-02             
       O  1.12347e+00  9.48580e-01  3.83273e-01             
       N -7.77933e-01 -2.54699e-01 -1.19141e-01             
       C -4.45902e-02 -1.50187e+00 -6.06172e-02             
       H -1.35894e+00  2.41663e+00 -9.86779e-01             
       H -1.42960e+00  2.38025e+00  7.34437e-01             
       H  7.49600e-02  2.95731e+00  2.95840e-02             
       H  3.44115e-01 -1.80966e+00  9.26470e-01             
       H -8.94064e-01 -2.20088e+00 -2.49409e-01             
       H  7.93074e-01 -1.62835e+00 -8.09188e-01             
       H -1.72132e+00 -2.57904e-01 -5.28170e-01             
12                                                          
# CELL(abcABC):  100.00000   100.00000   100.00000    90.00000    90.00000    90.00000  Step:      250000  Bead:       0 x_centroid{angstrom}  cell{angstrom}   
       C -3.59792e+01 -1.89134e+01 -1.47563e+01             
       C -3.51026e+01 -1.93014e+01 -1.59129e+01             
       O -3.39791e+01 -1.88335e+01 -1.61871e+01             
       N -3.56456e+01 -2.04515e+01 -1.65645e+01             
       C -3.51644e+01 -2.09672e+01 -1.79043e+01             
       H -3.56852e+01 -1.97275e+01 -1.39989e+01             
       H -3.57453e+01 -1.79313e+01 -1.42921e+01             
       H -3.70095e+01 -1.88852e+01 -1.50739e+01             
       H -3.60402e+01 -2.15009e+01 -1.83594e+01             
       H -3.47628e+01 -2.00671e+01 -1.84896e+01             
       H -3.43396e+01 -2.15847e+01 -1.77145e+01             
       H -3.65855e+01 -2.07109e+01 -1.62591e+01             
