12                                                          
# CELL(abcABC):  100.00000   100.00000   100.00000    90.00000    90.00000    90.00000  Step:           0  Bead:       0 x_centroid{angstrom}  cell{angstrom}   
       C -1.14026e+00 -1.21291e+00 -2.38634e+00             
       C -2.05260e+00 -9.14145e-01 -1.18728e+00             
       O -1.53946e+00 -4.47045e-01 -1.91540e-01             
       N -3.35725e+00 -1.21572e+00 -1.40302e+00             
       C -4.43990e+00 -8.79159e-01 -4.01902e-01             
       H -3.37142e-02 -1.11804e+00 -2.15327e+00             
       H -1.55108e+00 -2.11722e+00 -2.97102e+00             
       H -1.31369e+00 -4.49310e-01 -3.12778e+00             
       H -4.30472e+00  8.02850e-02  1.90829e-01             
       H -5.45236e+00 -8.53175e-01 -8.36018e-01             
       H -4.39602e+00 -1.63140e+00  3.91890e-01             
       H -3.58863e+00 -1.76701e+00 -2.23091e+00             
12                                                          
# CELL(abcABC):  100.00000   100.00000   100.00000    90.00000    90.00000    90.00000  Step:      250000  Bead:       0 x_centroid{angstrom}  cell{angstrom}   
       C -3.23492e+01 -1.64165e+01 -1.49489e+01             
       C -3.25153e+01 -1.78799e+01 -1.53107e+01             
       O -3.16507e+01 -1.83899e+01 -1.60553e+01             
       N -3.34551e+01 -1.86123e+01 -1.46517e+01             
       C -3.35776e+01 -2.00742e+01 -1.47065e+01             
       H -3.26457e+01 -1.57246e+01 -1.57835e+01             
       H -3.29070e+01 -1.61016e+01 -1.41054e+01             
       H -3.12682e+01 -1.62188e+01 -1.47602e+01             
       H -3.27632e+01 -2.04906e+01 -1.52867e+01             
       H -3.33916e+01 -2.04474e+01 -1.36183e+01             
       H -3.46102e+01 -2.04756e+01 -1.50437e+01             
       H -3.42639e+01 -1.81698e+01 -1.42717e+01             
