12                                                          
# CELL(abcABC):  100.00000   100.00000   100.00000    90.00000    90.00000    90.00000  Step:           0  Bead:       0 x_centroid{angstrom}  cell{angstrom}   
       C  8.89967e-01  1.32863e+00 -1.48264e+00             
       C  3.67927e-01  4.83187e-01 -2.24518e-01             
       O  1.03625e+00 -8.16649e-02  6.36577e-01             
       N -9.67038e-01  5.86850e-01  2.22078e-02             
       C -1.72224e+00 -3.93707e-02  1.06894e+00             
       H  1.72249e+00  9.12780e-01 -2.01589e+00             
       H  5.19235e-02  1.56701e+00 -2.16685e+00             
       H  1.20875e+00  2.35630e+00 -1.14430e+00             
       H -1.96491e+00  6.48047e-01  1.97325e+00             
       H -2.71629e+00 -3.60515e-01  7.43267e-01             
       H -1.12492e+00 -8.52442e-01  1.47066e+00             
       H -1.46307e+00  1.16288e+00 -6.76384e-01             
12                                                          
# CELL(abcABC):  100.00000   100.00000   100.00000    90.00000    90.00000    90.00000  Step:      250000  Bead:       0 x_centroid{angstrom}  cell{angstrom}   
       C -2.55719e+01 -1.26921e+01 -1.24656e+01             
       C -2.57011e+01 -1.41497e+01 -1.21258e+01             
       O -2.47347e+01 -1.49172e+01 -1.19693e+01             
       N -2.69513e+01 -1.45748e+01 -1.19517e+01             
       C -2.73479e+01 -1.59668e+01 -1.17149e+01             
       H -2.52026e+01 -1.26440e+01 -1.35615e+01             
       H -2.63869e+01 -1.20244e+01 -1.23013e+01             
       H -2.48064e+01 -1.23591e+01 -1.18299e+01             
       H -2.75201e+01 -1.65080e+01 -1.26253e+01             
       H -2.65394e+01 -1.64496e+01 -1.11482e+01             
       H -2.83755e+01 -1.59146e+01 -1.12103e+01             
       H -2.76848e+01 -1.38893e+01 -1.21503e+01             
