192                                                         
# CELL(abcABC):   12.41850    12.41850    12.41850    90.00000    90.00000    90.00000  Step:           0  Bead:       0 x_centroid{angstrom}  cell{angstrom}   
       O -7.44911e+01 -1.01751e+01  6.75922e+01             
       H -7.40595e+01 -1.09568e+01  6.71738e+01             
       H -7.37970e+01 -9.49866e+00  6.74252e+01             
       O -6.20486e+01 -7.07106e+00  5.73929e+01             
       H -6.30140e+01 -1.49898e+01  5.28412e+01             
       H -6.12006e+01 -6.66150e+00  5.70758e+01             
       O -6.61721e+01 -2.59106e+01  4.99496e+01             
       H -6.55616e+01 -1.32027e+01  5.06553e+01             
       H -6.57387e+01 -2.63563e+01  4.92432e+01             
       O -5.98065e+01 -2.08827e+01  5.46235e+01             
       H -5.90933e+01 -2.09706e+01  5.52345e+01             
       H -5.99857e+01 -1.99824e+01  5.42922e+01             
       O -5.20271e+01 -2.03067e+01  4.79858e+01             
       H -5.15114e+01 -1.97235e+01  4.85287e+01             
       H -5.16038e+01 -2.11285e+01  4.80625e+01             
       O -5.57795e+01 -1.83316e+01  6.31496e+01             
       H -5.51796e+01 -1.88389e+01  6.25523e+01             
       H -5.53973e+01 -1.74752e+01  6.33922e+01             
       O -6.26141e+01 -1.88959e+01  3.69301e+01             
       H -6.17274e+01 -1.90534e+01  3.64863e+01             
       H -5.17065e+01  2.12843e+00  5.19281e+01             
       O -4.60715e+01 -1.59419e+01  6.68937e+01             
       H -4.55432e+01 -1.59053e+01  6.77291e+01             
       H -4.54597e+01 -2.78696e+01  6.62826e+01             
       O -6.86373e+01 -9.73220e+00  4.07523e+01             
       H -6.77238e+01 -9.79566e+00  4.10919e+01             
       H -6.84326e+01 -1.01448e+01  3.98392e+01             
       O -6.38377e+01 -2.29571e+01  4.87421e+01             
       H -6.32112e+01 -2.33153e+01  4.81262e+01             
       H -6.32304e+01 -2.30933e+01  4.95411e+01             
       O -6.76786e+01 -5.81836e+00  5.65321e+01             
       H -6.69262e+01 -6.17834e+00  5.68953e+01             
       H -6.73305e+01 -5.57713e+00  5.56465e+01             
       O -6.33983e+01 -1.07567e+01  4.53902e+01             
       H -6.26594e+01 -1.05947e+01  4.59205e+01             
       H -5.45344e+01 -1.01586e+01  4.34358e+01             
       O -5.96891e+01 -3.06660e+01  4.11333e+01             
       H -5.94367e+01 -2.97408e+01  4.12357e+01             
       H -5.72098e+01 -2.62835e+01  5.76206e+01             
       O -7.03182e+01 -1.79976e+01  4.90300e+01             
       H -6.96021e+01 -1.81268e+01  4.95992e+01             
       H -6.98296e+01 -1.75997e+01  4.83126e+01             
       O -5.55878e+01 -2.37162e+01  5.87431e+01             
       H -5.54732e+01 -2.31416e+01  5.79239e+01             
       H -5.47059e+01 -2.40796e+01  5.89205e+01             
       O -6.38497e+01 -7.99282e+00  5.58236e+01             
       H -6.30937e+01 -7.79858e+00  5.63786e+01             
       H -6.37992e+01 -8.92190e+00  5.55694e+01             
       O -6.20860e+01 -7.10379e+00  3.96464e+01             
       H -6.14861e+01 -1.88172e+01  3.98781e+01             
       H -6.15300e+01 -7.94672e+00  3.97665e+01             
       O -6.38045e+01 -2.54037e+01  4.29593e+01             
       H -6.34892e+01 -2.53169e+01  4.20675e+01             
       H -6.29967e+01 -2.55339e+01  4.35363e+01             
       O -7.07155e+01 -1.25726e+01  4.87598e+01             
       H -7.00098e+01 -1.32077e+01  4.90040e+01             
       H -7.02987e+01 -1.18799e+01  4.82241e+01             
       O -6.32178e+01  7.85566e+00  4.48678e+01             
       H -4.72773e+01 -1.60344e+01  4.94131e+01             
       H -6.22706e+01  8.16575e+00  4.48311e+01             
       O -5.66940e+01 -1.58655e+01  5.68962e+01             
       H -6.01973e+01 -2.18066e+01  5.30779e+01             
       H -6.87343e+01 -1.67340e+01  5.69804e+01             
       O -5.68811e+01 -2.68486e+01  5.26602e+01             
       H -5.63014e+01 -2.73470e+01  5.21233e+01             
       H -5.63083e+01 -2.63200e+01  5.31783e+01             
       O -6.45945e+01 -1.96090e+01  5.33729e+01             
       H -6.42858e+01 -1.99001e+01  5.42796e+01             
       H -6.37416e+01 -1.93810e+01  5.29904e+01             
       O -6.15792e+01 -3.94524e+01  5.39595e+01             
       H -6.08292e+01 -4.00595e+01  5.40774e+01             
       H -6.11351e+01 -3.86079e+01  6.65608e+01             
       O -6.45765e+01 -2.55242e+00  4.81569e+01             
       H -6.39570e+01 -1.96595e+00  4.76991e+01             
       H -6.39783e+01 -2.98949e+00  4.87722e+01             
       O -5.40217e+01 -1.76973e+01  5.40171e+01             
       H -5.31659e+01 -1.72107e+01  5.44283e+01             
       H -5.36208e+01 -1.84949e+01  5.35511e+01             
       O -6.24594e+01 -2.37757e+01  6.34830e+01             
       H -6.19784e+01 -2.30689e+01  6.39927e+01             
       H -6.18488e+01 -2.41065e+01  6.26955e+01             
       O -7.81499e+01 -2.00508e+01  4.52291e+01             
       H -7.78722e+01 -2.01573e+01  4.61019e+01             
       H -7.73434e+01 -2.01128e+01  4.46811e+01             
       O -5.98112e+01 -1.94267e+00  5.93404e+01             
       H -6.00806e+01 -2.20932e+00  6.02244e+01             
       H -5.91000e+01 -1.31396e+00  5.94389e+01             
       O -6.26918e+01 -1.31432e+01  4.69922e+01             
       H -6.24800e+01 -1.31586e+01  4.60338e+01             
       H -6.18974e+01 -1.30992e+01  3.50918e+01             
       O -5.78226e+01 -1.13210e+01  2.97309e+01             
       H -5.70774e+01 -1.19429e+01  2.97245e+01             
       H -6.98822e+01 -1.06977e+01  2.91073e+01             
       O -4.91325e+01 -1.33298e+01  3.20331e+01             
       H -4.85543e+01 -1.41232e+01  3.18652e+01             
       H -4.84396e+01 -1.26393e+01  3.19992e+01             
       O -6.08519e+01 -2.43510e+01  3.64127e+01             
       H -5.99524e+01 -2.46900e+01  3.65861e+01             
       H -6.08151e+01 -2.39355e+01  4.79253e+01             
       O -5.60718e+01 -1.64283e+01  3.49379e+01             
       H -6.54600e+01 -1.10111e+01  4.14885e+01             
       H -5.63199e+01 -1.59822e+01  3.41822e+01             
       O -5.92453e+01 -2.38324e+01  5.71117e+01             
       H -5.85020e+01 -2.43551e+01  5.75306e+01             
       H -5.88422e+01 -2.35024e+01  5.63216e+01             
       O -4.78691e+01 -1.20353e+01  4.12644e+01             
       H -4.75300e+01 -1.22038e+01  4.04251e+01             
       H -4.70393e+01 -1.18722e+01  4.16785e+01             
       O -5.21647e+01 -2.52413e+01  5.19695e+01             
       H -5.13743e+01 -2.47015e+01  5.17125e+01             
       H -5.18147e+01 -2.61555e+01  5.21971e+01             
       O -5.86258e+01 -8.57680e+00  5.91339e+01             
       H -5.81858e+01 -8.46102e+00  5.82485e+01             
       H -5.78937e+01 -8.81275e+00  5.97671e+01             
       O -4.82026e+01  8.94123e+00  6.95484e+01             
       H -4.74758e+01  8.27668e+00  6.93901e+01             
       H -4.79752e+01  9.47805e+00  7.03475e+01             
       O -5.74732e+01 -2.54864e+01  5.81507e+01             
       H -6.25299e+01 -1.90634e+01  3.78813e+01             
       H -5.66668e+01 -2.50213e+01  5.85054e+01             
       O -6.37624e+01 -1.52872e+01  5.23425e+01             
       H -5.50545e+01 -1.66024e+01  3.48706e+01             
       H -6.34177e+01 -1.56061e+01  5.15538e+01             
       O -5.49286e+01 -9.52009e+00  4.40932e+01             
       H -6.31515e+01 -5.51621e+00  4.49649e+01             
       H -5.42269e+01 -8.90744e+00  4.44405e+01             
       O -5.55113e+01 -2.52286e+01  5.43363e+01             
       H -6.77471e+01 -2.59025e+01  6.74430e+01             
       H -4.94523e+01 -7.26447e+00  5.83202e+01             
       O -9.02654e+01 -1.23189e+01  5.85422e+01             
       H -8.96153e+01 -1.16844e+01  5.81883e+01             
       H -8.98755e+01 -1.26483e+01  5.94064e+01             
       O -6.02831e+01 -2.77742e+01  4.96042e+01             
       H -5.97827e+01 -2.71112e+01  5.01747e+01             
       H -5.58245e+01 -1.53949e+01  5.68588e+01             
       O -6.59645e+01 -1.10940e+01  4.22959e+01             
       H -6.54747e+01 -1.16313e+01  4.28897e+01             
       H -7.25641e+01 -2.21950e+01  2.21280e+01             
       O -6.96460e+01 -2.04688e+01  4.38555e+01             
       H -6.89901e+01 -1.97506e+01  4.39413e+01             
       H -6.90485e+01 -2.12298e+01  4.36945e+01             
       O -5.48683e+01 -2.31549e+01  3.83915e+01             
       H -5.46674e+01 -2.40440e+01  3.82349e+01             
       H -5.39124e+01 -2.28111e+01  3.87277e+01             
       O -4.42858e+01 -2.69645e+01  4.90513e+01             
       H -4.34690e+01 -1.42597e+01  4.95178e+01             
       H -4.40922e+01 -2.76734e+01  4.84444e+01             
       O -5.85989e+01 -9.20366e+00  5.07971e+01             
       H -4.57394e+01 -9.50416e+00  4.99800e+01             
       H -5.80393e+01 -8.52425e+00  5.12030e+01             
       O -5.24929e+01  2.46610e+00  5.25057e+01             
       H -5.90354e+01 -3.10497e+01  4.04889e+01             
       H -6.29781e+01  1.75241e+00  4.45510e+01             
       O -6.59803e+01 -1.67775e+01  4.69374e+01             
       H -6.56269e+01 -1.75183e+01  4.64005e+01             
       H -6.52576e+01 -1.61474e+01  4.70555e+01             
       O -6.28994e+01 -3.81613e+00  3.73539e+01             
       H -6.20028e+01 -1.59139e+01  3.74197e+01             
       H -6.28073e+01 -4.73637e+00  3.71641e+01             
       O -6.99234e+01 -1.96329e+01  5.22694e+01             
       H -6.92346e+01 -1.92227e+01  5.17008e+01             
       H -6.94135e+01 -2.02197e+01  5.28248e+01             
       O -5.94233e+01 -1.83262e+01  5.65849e+01             
       H -5.92635e+01 -1.83757e+01  5.56013e+01             
       H -5.85746e+01 -1.86583e+01  5.69705e+01             
       O -7.30394e+01 -2.16443e+01  3.97871e+01             
       H -7.23477e+01 -2.17550e+01  5.15224e+01             
       H -6.70973e+01 -3.71096e+01  4.19869e+01             
       O -5.44659e+01 -2.03646e+01  6.18855e+01             
       H -5.44614e+01 -2.09881e+01  6.25693e+01             
       H -5.36671e+01 -2.02704e+01  6.13743e+01             
       O -6.02120e+01 -1.91216e+01  4.80341e+01             
       H -5.94578e+01 -1.88296e+01  4.85599e+01             
       H -5.97399e+01 -1.96804e+01  4.73744e+01             
       O -7.71248e+01 -1.59721e+01  5.53659e+01             
       H -7.65163e+01 -1.54736e+01  5.48580e+01             
       H -7.65175e+01 -1.63601e+01  5.61117e+01             
       O -5.65425e+01 -2.19504e+01  4.81206e+01             
       H -5.58511e+01 -2.14034e+01  4.85709e+01             
       H -5.59865e+01 -2.25807e+01  4.76662e+01             
       O -7.15546e+01 -1.31825e+01  2.67151e+01             
       H -7.10984e+01 -1.28403e+01  2.59554e+01             
       H -7.09161e+01 -1.36908e+01  2.72837e+01             
       O -6.06591e+01 -2.29402e+01  2.18204e+01             
       H -3.98977e+01 -8.96052e+00  4.02790e+01             
       H -6.01072e+01 -2.33464e+01  2.10160e+01             
       O -6.72175e+01 -1.60292e+01  5.16481e+01             
       H -6.67587e+01 -1.62881e+01  5.24489e+01             
       H -6.66308e+01 -1.57845e+01  5.09184e+01             
       O -6.67478e+01 -1.44933e+01  6.89012e+01             
       H -6.59542e+01 -1.50399e+01  6.85310e+01             
       H -6.63577e+01 -1.38737e+01  6.95490e+01             
192                                                         
# CELL(abcABC):   12.41850    12.41850    12.41850    90.00000    90.00000    90.00000  Step:      200000  Bead:       0 x_centroid{angstrom}  cell{angstrom}   
       O -8.60581e+01 -1.56180e+01  7.11859e+01             
       H -8.53328e+01 -1.59231e+01  7.17103e+01             
       H -8.55941e+01 -1.50406e+01  7.05350e+01             
       O -7.43516e+01 -9.37476e+00  6.40273e+01             
       H -7.83701e+01 -2.26601e+01  5.95615e+01             
       H -7.36460e+01 -9.23571e+00  6.32540e+01             
       O -7.95307e+01 -2.88343e+01  5.66692e+01             
       H -7.88090e+01 -1.69664e+01  5.71244e+01             
       H -7.91020e+01 -2.82359e+01  5.60447e+01             
       O -7.12132e+01 -2.53954e+01  6.20021e+01             
       H -7.06042e+01 -2.60542e+01  6.15179e+01             
       H -7.05940e+01 -2.50202e+01  6.27517e+01             
       O -6.49880e+01 -2.41386e+01  5.35731e+01             
       H -6.40612e+01 -2.38497e+01  5.39123e+01             
       H -6.47671e+01 -2.40293e+01  5.26023e+01             
       O -6.97500e+01 -2.22893e+01  6.88825e+01             
       H -6.91378e+01 -2.25618e+01  6.81895e+01             
       H -6.90679e+01 -2.17772e+01  6.94927e+01             
       O -7.51769e+01 -2.37107e+01  4.25011e+01             
       H -7.43191e+01 -2.32872e+01  4.21631e+01             
       H -6.30669e+01 -1.49413e+00  5.64724e+01             
       O -5.84851e+01 -2.21239e+01  7.29824e+01             
       H -5.79350e+01 -2.28378e+01  7.32908e+01             
       H -5.79758e+01 -3.37668e+01  7.26478e+01             
       O -8.30938e+01 -1.20610e+01  4.59235e+01             
       H -8.24834e+01 -1.19963e+01  4.67026e+01             
       H -8.28132e+01 -1.13827e+01  4.52895e+01             
       O -7.45299e+01 -2.84924e+01  5.27592e+01             
       H -7.39122e+01 -2.77952e+01  5.28987e+01             
       H -7.41279e+01 -2.92243e+01  5.32164e+01             
       O -8.11482e+01 -8.46063e+00  6.38750e+01             
       H -8.07815e+01 -8.41036e+00  6.47785e+01             
       H -8.02140e+01 -8.48662e+00  6.34333e+01             
       O -7.34348e+01 -1.35915e+01  5.03580e+01             
       H -7.31871e+01 -1.40649e+01  5.12277e+01             
       H -6.79625e+01 -1.12305e+01  4.74255e+01             
       O -7.34200e+01 -3.60031e+01  4.71098e+01             
       H -7.30303e+01 -3.63921e+01  4.62895e+01             
       H -6.82057e+01 -2.62041e+01  6.71263e+01             
       O -8.42443e+01 -2.05810e+01  5.54127e+01             
       H -8.34525e+01 -2.11535e+01  5.56656e+01             
       H -8.37841e+01 -1.98422e+01  5.49408e+01             
       O -6.72315e+01 -2.53580e+01  6.43812e+01             
       H -6.66452e+01 -2.51486e+01  6.35867e+01             
       H -6.66137e+01 -2.55270e+01  6.51658e+01             
       O -7.56878e+01 -1.16490e+01  6.33746e+01             
       H -7.51183e+01 -1.08396e+01  6.33893e+01             
       H -7.50778e+01 -1.24218e+01  6.33698e+01             
       O -7.73346e+01 -9.70107e+00  4.82364e+01             
       H -7.70895e+01 -2.28838e+01  4.87445e+01             
       H -7.64846e+01 -9.40334e+00  4.77527e+01             
       O -7.50370e+01 -2.71378e+01  4.86661e+01             
       H -7.45218e+01 -2.75837e+01  4.79904e+01             
       H -7.43428e+01 -2.67727e+01  4.92819e+01             
       O -8.45756e+01 -1.38856e+01  5.71576e+01             
       H -8.40570e+01 -1.30655e+01  5.76168e+01             
       H -8.38471e+01 -1.44536e+01  5.69136e+01             
       O -7.63587e+01  4.97838e+00  5.14245e+01             
       H -6.04382e+01 -2.00474e+01  5.70618e+01             
       H -7.58823e+01  5.83690e+00  5.12125e+01             
       O -7.03684e+01 -1.88298e+01  6.31208e+01             
       H -7.59733e+01 -2.60460e+01  6.02842e+01             
       H -8.23565e+01 -1.95777e+01  6.35750e+01             
       O -6.93672e+01 -3.23034e+01  5.96506e+01             
       H -6.87449e+01 -3.24087e+01  5.89021e+01             
       H -6.89638e+01 -3.19072e+01  6.04716e+01             
       O -7.79971e+01 -2.47260e+01  6.24409e+01             
       H -7.72045e+01 -2.44569e+01  6.29579e+01             
       H -7.75067e+01 -2.53218e+01  6.18056e+01             
       O -7.69303e+01 -4.15236e+01  6.17534e+01             
       H -7.62372e+01 -4.21371e+01  6.21549e+01             
       H -7.64527e+01 -4.07284e+01  7.38242e+01             
       O -7.80186e+01 -7.67428e+00  5.57233e+01             
       H -7.73348e+01 -7.13785e+00  5.51244e+01             
       H -7.75312e+01 -8.50234e+00  5.59740e+01             
       O -6.63713e+01 -2.01834e+01  6.26230e+01             
       H -6.54830e+01 -2.00405e+01  6.31076e+01             
       H -6.60816e+01 -2.06011e+01  6.17857e+01             
       O -7.49525e+01 -2.99151e+01  6.95417e+01             
       H -7.45724e+01 -2.91616e+01  7.00789e+01             
       H -7.43759e+01 -3.06903e+01  6.97194e+01             
       O -9.26049e+01 -2.03400e+01  5.40461e+01             
       H -9.17174e+01 -2.03150e+01  5.46355e+01             
       H -9.24727e+01 -1.95905e+01  5.34445e+01             
       O -7.40646e+01 -5.96648e+00  6.68898e+01             
       H -7.31371e+01 -5.91570e+00  6.64703e+01             
       H -7.40209e+01 -5.60442e+00  6.77250e+01             
       O -7.69449e+01 -1.59477e+01  5.39392e+01             
       H -7.70637e+01 -1.67913e+01  5.42693e+01             
       H -7.60493e+01 -1.58465e+01  4.10916e+01             
       O -6.93755e+01 -1.47338e+01  3.63390e+01             
       H -6.89851e+01 -1.51284e+01  3.70899e+01             
       H -8.10554e+01 -1.45651e+01  3.56716e+01             
       O -6.02599e+01 -1.83427e+01  3.71268e+01             
       H -5.94970e+01 -1.86525e+01  3.76904e+01             
       H -6.00962e+01 -1.75263e+01  3.66209e+01             
       O -7.65053e+01 -3.11219e+01  4.16604e+01             
       H -7.65862e+01 -3.14928e+01  4.07533e+01             
       H -7.55350e+01 -3.09818e+01  5.42441e+01             
       O -7.17205e+01 -1.80521e+01  4.06978e+01             
       H -7.82685e+01 -1.74847e+01  4.67680e+01             
       H -7.13113e+01 -1.84680e+01  3.99568e+01             
       O -6.86211e+01 -2.76451e+01  6.40734e+01             
       H -6.77586e+01 -2.82682e+01  6.38929e+01             
       H -6.82181e+01 -2.68140e+01  6.43091e+01             
       O -5.90740e+01 -1.65138e+01  4.79282e+01             
       H -5.87959e+01 -1.71203e+01  4.72007e+01             
       H -5.82975e+01 -1.60043e+01  4.82426e+01             
       O -6.51551e+01 -3.04970e+01  5.76110e+01             
       H -6.42634e+01 -3.01055e+01  5.75084e+01             
       H -6.51161e+01 -3.13057e+01  5.70376e+01             
       O -7.09767e+01 -1.21803e+01  6.59309e+01             
       H -7.04411e+01 -1.18388e+01  6.51901e+01             
       H -7.03109e+01 -1.25216e+01  6.65664e+01             
       O -5.80170e+01  9.17834e+00  7.84064e+01             
       H -5.72898e+01  9.32945e+00  7.77085e+01             
       H -5.76538e+01  9.31569e+00  7.93454e+01             
       O -6.88697e+01 -2.55483e+01  6.73097e+01             
       H -7.47248e+01 -2.45835e+01  4.26750e+01             
       H -6.84413e+01 -2.46876e+01  6.73443e+01             
       O -7.91052e+01 -2.28670e+01  5.89408e+01             
       H -7.12186e+01 -1.72018e+01  4.07890e+01             
       H -7.87096e+01 -2.34678e+01  5.81677e+01             
       O -6.88091e+01 -1.16680e+01  4.78077e+01             
       H -7.57069e+01 -8.19375e+00  5.14490e+01             
       H -6.84862e+01 -1.24603e+01  4.82888e+01             
       O -6.81541e+01 -3.09579e+01  6.15575e+01             
       H -7.98714e+01 -3.15428e+01  7.44536e+01             
       H -6.14210e+01 -9.73740e+00  6.47537e+01             
       O -1.03548e+02 -1.42015e+01  6.72072e+01             
       H -1.03017e+02 -1.33928e+01  6.75207e+01             
       H -1.02802e+02 -1.47459e+01  6.67400e+01             
       O -7.33723e+01 -3.20525e+01  5.78135e+01             
       H -7.26409e+01 -3.14829e+01  5.81424e+01             
       H -6.96081e+01 -1.85180e+01  6.25460e+01             
       O -7.87349e+01 -1.71264e+01  4.75375e+01             
       H -7.79643e+01 -1.69469e+01  4.81653e+01             
       H -8.45255e+01 -2.57779e+01  2.83633e+01             
       O -8.18963e+01 -2.39635e+01  5.15091e+01             
       H -8.17908e+01 -2.30100e+01  5.13076e+01             
       H -8.10005e+01 -2.43521e+01  5.17624e+01             
       O -6.70366e+01 -2.68246e+01  4.73058e+01             
       H -6.68764e+01 -2.77947e+01  4.72695e+01             
       H -6.61427e+01 -2.64462e+01  4.74562e+01             
       O -5.76632e+01 -2.75453e+01  5.63069e+01             
       H -5.70163e+01 -1.57155e+01  5.67486e+01             
       H -5.72486e+01 -2.66960e+01  5.63083e+01             
       O -7.41089e+01 -1.37302e+01  5.54334e+01             
       H -6.12485e+01 -1.41173e+01  5.46073e+01             
       H -7.32488e+01 -1.37395e+01  5.60503e+01             
       O -6.39224e+01 -1.47806e+00  5.69620e+01             
       H -7.25750e+01 -3.57026e+01  4.75015e+01             
       H -7.23840e+01 -9.55194e-01  5.00569e+01             
       O -8.14203e+01 -1.80413e+01  5.64431e+01             
       H -8.10553e+01 -1.87721e+01  5.58305e+01             
       H -8.05919e+01 -1.74318e+01  5.65433e+01             
       O -7.63366e+01 -9.72239e+00  4.44452e+01             
       H -7.58072e+01 -2.16714e+01  4.51539e+01             
       H -7.57802e+01 -1.02687e+01  4.38605e+01             
       O -8.74487e+01 -2.14631e+01  5.91408e+01             
       H -8.69730e+01 -2.06912e+01  5.86958e+01             
       H -8.67131e+01 -2.21240e+01  5.92784e+01             
       O -7.30017e+01 -2.12362e+01  6.19276e+01             
       H -7.21465e+01 -2.15944e+01  6.15287e+01             
       H -7.30207e+01 -2.03008e+01  6.16978e+01             
       O -8.92550e+01 -2.56252e+01  4.75403e+01             
       H -8.89217e+01 -2.47996e+01  5.95620e+01             
       H -7.99124e+01 -4.28962e+01  4.85782e+01             
       O -6.55116e+01 -2.43391e+01  6.94722e+01             
       H -6.49628e+01 -2.51263e+01  6.96680e+01             
       H -6.48280e+01 -2.36516e+01  6.92799e+01             
       O -7.29380e+01 -2.26909e+01  5.38805e+01             
       H -7.26817e+01 -2.18723e+01  5.43543e+01             
       H -7.21981e+01 -2.33905e+01  5.38587e+01             
       O -8.73715e+01 -1.77922e+01  6.30584e+01             
       H -8.63809e+01 -1.80202e+01  6.27490e+01             
       H -8.72854e+01 -1.70417e+01  6.37224e+01             
       O -6.75316e+01 -2.32486e+01  5.49586e+01             
       H -6.70101e+01 -2.35932e+01  5.57354e+01             
       H -6.69295e+01 -2.34973e+01  5.42435e+01             
       O -8.35010e+01 -1.83877e+01  3.35386e+01             
       H -8.29050e+01 -1.81652e+01  3.27677e+01             
       H -8.27204e+01 -1.88919e+01  3.40744e+01             
       O -7.25615e+01 -2.66757e+01  2.82729e+01             
       H -5.12292e+01 -1.40460e+01  4.54500e+01             
       H -7.17659e+01 -2.73224e+01  2.83543e+01             
       O -8.03148e+01 -2.09092e+01  5.77246e+01             
       H -7.98358e+01 -2.15729e+01  5.82707e+01             
       H -7.95907e+01 -2.05573e+01  5.71966e+01             
       O -7.86732e+01 -1.67992e+01  7.63876e+01             
       H -7.82096e+01 -1.65079e+01  7.71825e+01             
       H -7.80230e+01 -1.67510e+01  7.56646e+01             
