192                                                         
# CELL(abcABC):   12.41850    12.41850    12.41850    90.00000    90.00000    90.00000  Step:           0  Bead:       0 x_centroid{angstrom}  cell{angstrom}   
       O -7.45680e+01 -1.05382e+01  6.76224e+01             
       H -7.42792e+01 -1.13278e+01  6.72072e+01             
       H -7.38344e+01 -9.89676e+00  6.74661e+01             
       O -6.19391e+01 -6.77754e+00  5.71832e+01             
       H -6.17897e+01 -1.58093e+01  5.34259e+01             
       H -6.10817e+01 -6.25653e+00  5.72208e+01             
       O -6.57883e+01 -2.64230e+01  5.07776e+01             
       H -6.50883e+01 -1.37365e+01  5.14131e+01             
       H -6.53000e+01 -2.67704e+01  4.99897e+01             
       O -6.02392e+01 -2.09548e+01  5.49089e+01             
       H -5.94795e+01 -2.09213e+01  5.54852e+01             
       H -6.00169e+01 -2.03059e+01  5.42074e+01             
       O -5.22320e+01 -2.00390e+01  4.78001e+01             
       H -5.15157e+01 -1.94798e+01  4.81368e+01             
       H -5.17845e+01 -2.09038e+01  4.79278e+01             
       O -5.58531e+01 -1.85259e+01  6.29830e+01             
       H -5.52110e+01 -1.91350e+01  6.24660e+01             
       H -5.54618e+01 -1.77524e+01  6.34020e+01             
       O -6.23759e+01 -1.90778e+01  3.64611e+01             
       H -6.14909e+01 -1.89258e+01  3.60546e+01             
       H -5.19424e+01  2.03262e+00  5.16063e+01             
       O -4.61645e+01 -1.59893e+01  6.65828e+01             
       H -4.55173e+01 -1.62730e+01  6.72622e+01             
       H -4.56496e+01 -2.79155e+01  6.58543e+01             
       O -6.93192e+01 -9.47558e+00  4.10911e+01             
       H -6.88957e+01 -9.33638e+00  4.19311e+01             
       H -6.85707e+01 -9.81531e+00  4.04986e+01             
       O -6.47856e+01 -2.29052e+01  4.84032e+01             
       H -6.43766e+01 -2.35568e+01  4.77997e+01             
       H -6.42436e+01 -2.31268e+01  4.91947e+01             
       O -6.79261e+01 -6.49813e+00  5.60212e+01             
       H -6.72391e+01 -6.71551e+00  5.66638e+01             
       H -6.73843e+01 -6.37996e+00  5.52481e+01             
       O -6.40232e+01 -1.06655e+01  4.47434e+01             
       H -6.38418e+01 -1.00773e+01  4.54366e+01             
       H -5.48300e+01 -1.03983e+01  4.33675e+01             
       O -5.94605e+01 -3.10801e+01  4.08572e+01             
       H -5.91255e+01 -3.01873e+01  4.11450e+01             
       H -5.71495e+01 -2.65263e+01  5.94178e+01             
       O -7.03853e+01 -1.74154e+01  4.91375e+01             
       H -6.97032e+01 -1.80125e+01  4.96619e+01             
       H -6.98075e+01 -1.71066e+01  4.83576e+01             
       O -5.58010e+01 -2.37626e+01  5.85695e+01             
       H -5.58083e+01 -2.33488e+01  5.76896e+01             
       H -5.48866e+01 -2.41501e+01  5.85959e+01             
       O -6.37898e+01 -7.84978e+00  5.55541e+01             
       H -6.30112e+01 -7.41094e+00  5.60038e+01             
       H -6.36298e+01 -8.81309e+00  5.55769e+01             
       O -6.18930e+01 -7.22214e+00  3.91529e+01             
       H -6.14861e+01 -1.88682e+01  3.95570e+01             
       H -6.12391e+01 -7.87189e+00  3.94272e+01             
       O -6.42714e+01 -2.59997e+01  4.28637e+01             
       H -6.38679e+01 -2.58941e+01  4.19544e+01             
       H -6.35455e+01 -2.58181e+01  4.34681e+01             
       O -7.05655e+01 -1.19332e+01  4.93926e+01             
       H -6.96970e+01 -1.24220e+01  4.93755e+01             
       H -7.03632e+01 -1.10293e+01  4.96707e+01             
       O -6.39453e+01  7.67171e+00  4.58476e+01             
       H -4.67655e+01 -1.59868e+01  4.93454e+01             
       H -6.32673e+01  8.37183e+00  4.59563e+01             
       O -5.70303e+01 -1.67238e+01  5.65064e+01             
       H -6.03151e+01 -2.26422e+01  5.25917e+01             
       H -6.89995e+01 -1.74901e+01  5.62288e+01             
       O -5.68222e+01 -2.69580e+01  5.25374e+01             
       H -5.61799e+01 -2.76516e+01  5.22785e+01             
       H -5.64112e+01 -2.64878e+01  5.33464e+01             
       O -6.42392e+01 -2.00912e+01  5.27520e+01             
       H -6.40615e+01 -2.00773e+01  5.37151e+01             
       H -6.33674e+01 -2.00108e+01  5.22886e+01             
       O -6.10468e+01 -3.97106e+01  5.48651e+01             
       H -6.01809e+01 -4.00652e+01  5.48602e+01             
       H -6.08107e+01 -3.87701e+01  6.71217e+01             
       O -6.44241e+01 -2.58665e+00  4.86234e+01             
       H -6.39652e+01 -1.89481e+00  4.81085e+01             
       H -6.36941e+01 -3.17957e+00  4.88834e+01             
       O -5.38945e+01 -1.77919e+01  5.40254e+01             
       H -5.34409e+01 -1.74489e+01  5.48471e+01             
       H -5.31258e+01 -1.82859e+01  5.36835e+01             
       O -6.26854e+01 -2.36547e+01  6.32494e+01             
       H -6.19860e+01 -2.31805e+01  6.38120e+01             
       H -6.21275e+01 -2.39371e+01  6.24727e+01             
       O -7.83237e+01 -2.02327e+01  4.50059e+01             
       H -7.79185e+01 -2.00066e+01  4.58783e+01             
       H -7.75748e+01 -2.04584e+01  4.44435e+01             
       O -6.01085e+01 -1.31095e+00  5.97062e+01             
       H -5.98252e+01 -1.73823e+00  6.05393e+01             
       H -5.92920e+01 -1.26226e+00  5.91384e+01             
       O -6.32340e+01 -1.26933e+01  4.72961e+01             
       H -6.28890e+01 -1.28993e+01  4.64202e+01             
       H -6.25683e+01 -1.21139e+01  3.52809e+01             
       O -5.81740e+01 -1.15973e+01  3.03729e+01             
       H -5.75020e+01 -1.22587e+01  3.03469e+01             
       H -7.02150e+01 -1.07606e+01  3.01179e+01             
       O -4.98866e+01 -1.32628e+01  3.23576e+01             
       H -4.95819e+01 -1.41700e+01  3.25118e+01             
       H -4.90323e+01 -1.27934e+01  3.23869e+01             
       O -6.09579e+01 -2.38887e+01  3.64512e+01             
       H -6.02732e+01 -2.46047e+01  3.62733e+01             
       H -6.03531e+01 -2.31470e+01  4.90189e+01             
       O -5.62596e+01 -1.66592e+01  3.46546e+01             
       H -6.57788e+01 -1.16508e+01  4.12695e+01             
       H -5.62419e+01 -1.65836e+01  3.37355e+01             
       O -6.01498e+01 -2.40774e+01  5.75275e+01             
       H -5.94305e+01 -2.41574e+01  5.81471e+01             
       H -5.97493e+01 -2.42294e+01  5.66679e+01             
       O -4.80040e+01 -1.24367e+01  4.15902e+01             
       H -4.78612e+01 -1.26579e+01  4.06531e+01             
       H -4.71810e+01 -1.20449e+01  4.19620e+01             
       O -5.12529e+01 -2.57066e+01  5.22921e+01             
       H -5.09115e+01 -2.48932e+01  5.17726e+01             
       H -5.05865e+01 -2.64785e+01  5.24498e+01             
       O -5.88092e+01 -8.68982e+00  5.90417e+01             
       H -5.86936e+01 -8.48028e+00  5.80566e+01             
       H -5.79306e+01 -8.93556e+00  5.94300e+01             
       O -4.93564e+01  9.21039e+00  7.06487e+01             
       H -4.87652e+01  8.63715e+00  7.01994e+01             
       H -4.88288e+01  9.56353e+00  7.14191e+01             
       O -5.75179e+01 -2.59763e+01  5.87458e+01             
       H -6.23244e+01 -1.94436e+01  3.73291e+01             
       H -5.69401e+01 -2.52193e+01  5.85560e+01             
       O -6.25054e+01 -1.58028e+01  5.27283e+01             
       H -5.52177e+01 -1.65600e+01  3.48723e+01             
       H -6.20584e+01 -1.62063e+01  5.20106e+01             
       O -5.52431e+01 -9.87573e+00  4.40571e+01             
       H -6.34045e+01 -5.52352e+00  4.57065e+01             
       H -5.45030e+01 -9.37372e+00  4.44047e+01             
       O -5.59414e+01 -2.55920e+01  5.48129e+01             
       H -6.81923e+01 -2.62675e+01  6.79215e+01             
       H -4.92646e+01 -7.50759e+00  5.77355e+01             
       O -9.07265e+01 -1.22461e+01  5.82109e+01             
       H -9.00785e+01 -1.17727e+01  5.76761e+01             
       H -9.01803e+01 -1.25396e+01  5.89314e+01             
       O -5.97838e+01 -2.76423e+01  4.95328e+01             
       H -5.95874e+01 -2.72302e+01  5.04186e+01             
       H -5.63306e+01 -1.60685e+01  5.66974e+01             
       O -6.60738e+01 -1.16728e+01  4.21681e+01             
       H -6.54270e+01 -1.22964e+01  4.25212e+01             
       H -7.30649e+01 -2.13192e+01  2.19243e+01             
       O -7.00609e+01 -2.06982e+01  4.39790e+01             
       H -6.97773e+01 -1.97711e+01  4.38305e+01             
       H -6.91977e+01 -2.11279e+01  4.40355e+01             
       O -5.52816e+01 -2.24994e+01  3.90964e+01             
       H -5.54439e+01 -2.34651e+01  3.88179e+01             
       H -5.43007e+01 -2.24345e+01  3.93573e+01             
       O -4.30778e+01 -2.51447e+01  4.91105e+01             
       H -4.25320e+01 -1.31224e+01  4.98116e+01             
       H -4.25849e+01 -2.44934e+01  4.86446e+01             
       O -5.87338e+01 -9.16919e+00  4.97178e+01             
       H -4.55745e+01 -9.25628e+00  4.90523e+01             
       H -5.84127e+01 -8.50828e+00  5.03389e+01             
       O -5.27381e+01  2.43930e+00  5.21143e+01             
       H -5.87530e+01 -3.15062e+01  4.02834e+01             
       H -6.31646e+01  1.72683e+00  4.42608e+01             
       O -6.61446e+01 -1.66001e+01  4.78715e+01             
       H -6.55557e+01 -1.68961e+01  4.71440e+01             
       H -6.56825e+01 -1.58043e+01  4.81136e+01             
       O -6.23050e+01 -3.88175e+00  3.72983e+01             
       H -6.13948e+01 -1.58660e+01  3.70482e+01             
       H -6.23358e+01 -4.85340e+00  3.70969e+01             
       O -7.03058e+01 -1.99543e+01  5.15807e+01             
       H -6.94104e+01 -1.95122e+01  5.13300e+01             
       H -6.99031e+01 -2.05896e+01  5.22122e+01             
       O -5.96483e+01 -1.74257e+01  5.74273e+01             
       H -5.87733e+01 -1.70754e+01  5.71071e+01             
       H -5.94480e+01 -1.77921e+01  5.82770e+01             
       O -7.31002e+01 -2.21654e+01  3.93944e+01             
       H -7.24689e+01 -2.20520e+01  5.10722e+01             
       H -6.75434e+01 -3.74129e+01  4.24390e+01             
       O -5.43445e+01 -2.03983e+01  6.15388e+01             
       H -5.39128e+01 -2.10722e+01  6.21279e+01             
       H -5.35830e+01 -2.01103e+01  6.09848e+01             
       O -5.97637e+01 -1.86613e+01  4.77226e+01             
       H -5.90940e+01 -1.81525e+01  4.82897e+01             
       H -5.92879e+01 -1.95015e+01  4.74707e+01             
       O -7.74475e+01 -1.64113e+01  5.61349e+01             
       H -7.69179e+01 -1.56531e+01  5.59486e+01             
       H -7.69937e+01 -1.67738e+01  5.68925e+01             
       O -5.65020e+01 -2.20119e+01  4.79976e+01             
       H -5.57345e+01 -2.15320e+01  4.83028e+01             
       H -5.63061e+01 -2.27493e+01  4.73798e+01             
       O -7.14363e+01 -1.32417e+01  2.66942e+01             
       H -7.10359e+01 -1.27190e+01  2.59593e+01             
       H -7.07145e+01 -1.36783e+01  2.72217e+01             
       O -6.15182e+01 -2.16574e+01  2.14967e+01             
       H -4.00027e+01 -9.00010e+00  3.98894e+01             
       H -6.11964e+01 -2.24185e+01  2.10429e+01             
       O -6.73353e+01 -1.64169e+01  5.20023e+01             
       H -6.68760e+01 -1.67868e+01  5.27711e+01             
       H -6.67611e+01 -1.58441e+01  5.15831e+01             
       O -6.73312e+01 -1.49590e+01  6.93613e+01             
       H -6.65444e+01 -1.54315e+01  6.89441e+01             
       H -6.69270e+01 -1.42332e+01  6.98780e+01             
192                                                         
# CELL(abcABC):   12.41850    12.41850    12.41850    90.00000    90.00000    90.00000  Step:      200000  Bead:       0 x_centroid{angstrom}  cell{angstrom}   
       O -8.57601e+01 -1.09385e+01  7.13497e+01             
       H -8.50462e+01 -1.10599e+01  7.07190e+01             
       H -8.53291e+01 -1.04890e+01  7.20819e+01             
       O -7.19175e+01 -9.50494e+00  6.05809e+01             
       H -7.21161e+01 -1.65208e+01  5.82192e+01             
       H -7.13261e+01 -1.00864e+01  6.11217e+01             
       O -7.65833e+01 -2.99276e+01  5.55692e+01             
       H -7.58346e+01 -1.68985e+01  5.60844e+01             
       H -7.59199e+01 -3.05744e+01  5.51386e+01             
       O -6.93753e+01 -2.62388e+01  6.18935e+01             
       H -6.86836e+01 -2.64274e+01  6.11284e+01             
       H -6.87042e+01 -2.60552e+01  6.26399e+01             
       O -6.29219e+01 -2.27569e+01  5.51076e+01             
       H -6.18393e+01 -2.24771e+01  5.50630e+01             
       H -6.34395e+01 -2.22473e+01  5.44171e+01             
       O -6.76419e+01 -2.05995e+01  6.78220e+01             
       H -6.72530e+01 -2.13927e+01  6.74043e+01             
       H -6.68283e+01 -2.02333e+01  6.82419e+01             
       O -7.28968e+01 -2.24717e+01  4.25454e+01             
       H -7.23457e+01 -2.26538e+01  4.18005e+01             
       H -6.44856e+01  9.82479e-01  5.78449e+01             
       O -5.62177e+01 -1.83751e+01  7.28483e+01             
       H -5.54641e+01 -1.85368e+01  7.34651e+01             
       H -5.57021e+01 -3.05418e+01  7.20431e+01             
       O -8.01708e+01 -1.14913e+01  4.62703e+01             
       H -8.02177e+01 -1.13325e+01  4.72105e+01             
       H -7.92332e+01 -1.17168e+01  4.59964e+01             
       O -7.57574e+01 -2.52701e+01  5.40576e+01             
       H -7.53093e+01 -2.44020e+01  5.40756e+01             
       H -7.51270e+01 -2.58136e+01  5.45187e+01             
       O -7.83298e+01 -9.02386e+00  6.15890e+01             
       H -7.74755e+01 -9.07539e+00  6.21030e+01             
       H -7.79090e+01 -8.80455e+00  6.06938e+01             
       O -7.33079e+01 -1.20343e+01  5.09733e+01             
       H -7.25668e+01 -1.16256e+01  5.15319e+01             
       H -6.57257e+01 -1.36301e+01  4.92215e+01             
       O -7.02320e+01 -3.26011e+01  4.68428e+01             
       H -6.96758e+01 -3.19800e+01  4.73191e+01             
       H -6.51023e+01 -2.78546e+01  6.52038e+01             
       O -8.14946e+01 -1.94421e+01  5.35218e+01             
       H -8.07862e+01 -1.99089e+01  5.41612e+01             
       H -8.09129e+01 -1.88390e+01  5.29645e+01             
       O -6.28204e+01 -2.83215e+01  6.24903e+01             
       H -6.20620e+01 -2.81381e+01  6.18473e+01             
       H -6.23415e+01 -2.87714e+01  6.32409e+01             
       O -7.58601e+01 -1.18883e+01  6.25403e+01             
       H -7.55689e+01 -1.18680e+01  6.16311e+01             
       H -7.49994e+01 -1.18867e+01  6.30427e+01             
       O -7.15619e+01 -1.09866e+01  4.45546e+01             
       H -7.07557e+01 -2.29415e+01  4.49262e+01             
       H -7.13086e+01 -1.19464e+01  4.44358e+01             
       O -7.34147e+01 -2.79553e+01  4.82705e+01             
       H -7.33167e+01 -2.85343e+01  4.74872e+01             
       H -7.25763e+01 -2.80185e+01  4.87365e+01             
       O -7.97720e+01 -1.45542e+01  5.49962e+01             
       H -7.90622e+01 -1.51481e+01  5.45404e+01             
       H -7.92208e+01 -1.37341e+01  5.53243e+01             
       O -7.38372e+01  4.33661e+00  4.94099e+01             
       H -5.74883e+01 -1.84160e+01  5.45715e+01             
       H -7.32043e+01  5.01128e+00  4.98181e+01             
       O -6.66822e+01 -1.88747e+01  6.23617e+01             
       H -7.11415e+01 -2.67334e+01  5.70448e+01             
       H -7.88343e+01 -1.98522e+01  6.22356e+01             
       O -6.73780e+01 -2.99795e+01  5.82955e+01             
       H -6.69808e+01 -3.06710e+01  5.77355e+01             
       H -6.66520e+01 -2.94542e+01  5.86185e+01             
       O -7.57753e+01 -2.28362e+01  5.76829e+01             
       H -7.56224e+01 -2.25502e+01  5.67322e+01             
       H -7.48638e+01 -2.29463e+01  5.80359e+01             
       O -7.06512e+01 -4.18227e+01  6.18949e+01             
       H -6.98347e+01 -4.22237e+01  6.14155e+01             
       H -7.02925e+01 -4.13483e+01  7.50798e+01             
       O -7.48350e+01 -6.83469e+00  5.39648e+01             
       H -7.45566e+01 -6.21389e+00  5.31482e+01             
       H -7.39046e+01 -7.03284e+00  5.43816e+01             
       O -6.45959e+01 -2.07175e+01  5.92606e+01             
       H -6.38723e+01 -2.00991e+01  5.95161e+01             
       H -6.41354e+01 -2.13868e+01  5.87385e+01             
       O -7.35281e+01 -2.66422e+01  6.73379e+01             
       H -7.28810e+01 -2.62001e+01  6.79817e+01             
       H -7.29325e+01 -2.71700e+01  6.67915e+01             
       O -8.84144e+01 -2.14618e+01  5.03507e+01             
       H -8.74801e+01 -2.10290e+01  5.00885e+01             
       H -8.83515e+01 -2.24604e+01  5.04328e+01             
       O -7.22901e+01 -6.13727e+00  6.29658e+01             
       H -7.15917e+01 -6.69681e+00  6.33416e+01             
       H -7.17826e+01 -5.48999e+00  6.23475e+01             
       O -7.38938e+01 -1.74345e+01  5.22983e+01             
       H -7.33751e+01 -1.79790e+01  5.16296e+01             
       H -7.31329e+01 -1.69994e+01  4.03516e+01             
       O -6.80552e+01 -1.42182e+01  3.48738e+01             
       H -6.72649e+01 -1.48595e+01  3.50483e+01             
       H -8.00763e+01 -1.33840e+01  3.44632e+01             
       O -5.94019e+01 -1.44465e+01  3.78813e+01             
       H -5.93690e+01 -1.50081e+01  3.86942e+01             
       H -5.84542e+01 -1.43229e+01  3.76945e+01             
       O -7.16891e+01 -2.84911e+01  4.13922e+01             
       H -7.12428e+01 -2.91709e+01  4.19794e+01             
       H -7.09152e+01 -2.83135e+01  5.32194e+01             
       O -6.74039e+01 -1.74420e+01  3.97411e+01             
       H -7.40469e+01 -1.22358e+01  4.69690e+01             
       H -6.70541e+01 -1.78218e+01  3.89670e+01             
       O -6.75253e+01 -2.61305e+01  6.41042e+01             
       H -6.67450e+01 -2.59042e+01  6.35044e+01             
       H -6.70817e+01 -2.64529e+01  6.49053e+01             
       O -5.82235e+01 -1.55884e+01  4.58745e+01             
       H -5.75587e+01 -1.58277e+01  4.51926e+01             
       H -5.78020e+01 -1.53019e+01  4.66603e+01             
       O -6.22278e+01 -2.85073e+01  5.66395e+01             
       H -6.17263e+01 -2.80160e+01  5.59950e+01             
       H -6.15882e+01 -2.89645e+01  5.73688e+01             
       O -7.02840e+01 -1.08857e+01  6.19395e+01             
       H -6.93126e+01 -1.07540e+01  6.17693e+01             
       H -7.03425e+01 -1.18328e+01  6.21769e+01             
       O -6.02405e+01  5.18490e+00  8.05055e+01             
       H -5.99333e+01  4.24994e+00  8.02896e+01             
       H -5.94755e+01  5.81327e+00  8.04019e+01             
       O -6.57153e+01 -2.83775e+01  6.58652e+01             
       H -7.23884e+01 -2.27975e+01  4.33584e+01             
       H -6.50899e+01 -2.88553e+01  6.64678e+01             
       O -7.29919e+01 -1.69868e+01  5.83301e+01             
       H -6.66623e+01 -1.71892e+01  4.03164e+01             
       H -7.27603e+01 -1.79965e+01  5.82181e+01             
       O -6.58427e+01 -1.29676e+01  4.98539e+01             
       H -7.31637e+01 -8.72120e+00  4.89109e+01             
       H -6.49498e+01 -1.25393e+01  5.00169e+01             
       O -6.58343e+01 -2.83123e+01  5.96687e+01             
       H -7.79078e+01 -2.89379e+01  7.27648e+01             
       H -5.88638e+01 -8.99061e+00  6.00643e+01             
       O -1.01475e+02 -1.44767e+01  6.43933e+01             
       H -1.01027e+02 -1.48414e+01  6.36065e+01             
       H -1.00830e+02 -1.39229e+01  6.49182e+01             
       O -7.04551e+01 -3.02657e+01  5.51773e+01             
       H -6.97555e+01 -2.97037e+01  5.56364e+01             
       H -6.58136e+01 -1.84043e+01  6.20857e+01             
       O -7.45943e+01 -1.29756e+01  4.74504e+01             
       H -7.38582e+01 -1.36100e+01  4.76930e+01             
       H -8.10875e+01 -2.87629e+01  2.73369e+01             
       O -8.02010e+01 -2.33800e+01  4.90411e+01             
       H -7.95739e+01 -2.26047e+01  4.90538e+01             
       H -7.96311e+01 -2.40130e+01  4.95026e+01             
       O -6.39666e+01 -2.67849e+01  4.60165e+01             
       H -6.35682e+01 -2.71641e+01  4.51736e+01             
       H -6.32354e+01 -2.63520e+01  4.65172e+01             
       O -5.33515e+01 -2.50155e+01  5.53102e+01             
       H -5.31919e+01 -1.24099e+01  5.62931e+01             
       H -5.24468e+01 -2.51797e+01  5.49172e+01             
       O -6.97860e+01 -1.33709e+01  5.44250e+01             
       H -5.72445e+01 -1.25533e+01  5.39205e+01             
       H -6.89409e+01 -1.39032e+01  5.43473e+01             
       O -6.52842e+01  3.07034e-01  5.78831e+01             
       H -6.96211e+01 -3.30504e+01  4.61378e+01             
       H -7.28396e+01 -4.20721e-01  5.06099e+01             
       O -7.67077e+01 -2.11326e+01  5.30465e+01             
       H -7.64076e+01 -2.11562e+01  5.21091e+01             
       H -7.61515e+01 -2.03885e+01  5.34650e+01             
       O -7.27617e+01 -7.21312e+00  4.59414e+01             
       H -7.28643e+01 -1.98671e+01  4.49147e+01             
       H -7.18007e+01 -7.46033e+00  4.61633e+01             
       O -8.15021e+01 -2.19905e+01  5.76032e+01             
       H -8.09904e+01 -2.14524e+01  5.69520e+01             
       H -8.09146e+01 -2.27590e+01  5.79807e+01             
       O -7.05747e+01 -2.06362e+01  6.37943e+01             
       H -6.99689e+01 -2.03470e+01  6.44705e+01             
       H -7.00190e+01 -2.11832e+01  6.32076e+01             
       O -8.36850e+01 -2.60183e+01  4.39379e+01             
       H -8.31037e+01 -2.61519e+01  5.55199e+01             
       H -7.75070e+01 -4.02254e+01  4.69061e+01             
       O -6.65317e+01 -2.27133e+01  6.61435e+01             
       H -6.62540e+01 -2.34595e+01  6.66924e+01             
       H -6.56619e+01 -2.22330e+01  6.59686e+01             
       O -7.16302e+01 -2.31568e+01  5.26632e+01             
       H -7.15434e+01 -2.22947e+01  5.22547e+01             
       H -7.07299e+01 -2.36016e+01  5.27073e+01             
       O -8.75020e+01 -1.89888e+01  6.01046e+01             
       H -8.67475e+01 -1.89343e+01  5.95128e+01             
       H -8.72353e+01 -1.96101e+01  6.08453e+01             
       O -6.89834e+01 -2.37688e+01  5.25706e+01             
       H -6.84748e+01 -2.43866e+01  5.20455e+01             
       H -6.83649e+01 -2.30781e+01  5.28628e+01             
       O -8.12267e+01 -1.62237e+01  3.15813e+01             
       H -8.06383e+01 -1.55659e+01  3.10819e+01             
       H -8.06835e+01 -1.66784e+01  3.23305e+01             
       O -6.95677e+01 -2.83418e+01  2.72132e+01             
       H -5.23928e+01 -1.29825e+01  4.56960e+01             
       H -6.93799e+01 -2.74338e+01  2.70576e+01             
       O -7.82024e+01 -1.93241e+01  5.70931e+01             
       H -7.75308e+01 -1.98100e+01  5.76429e+01             
       H -7.76389e+01 -1.86100e+01  5.65842e+01             
       O -7.69707e+01 -1.74427e+01  7.39024e+01             
       H -7.64731e+01 -1.80370e+01  7.32690e+01             
       H -7.62768e+01 -1.69088e+01  7.44363e+01             
