192                                                         
# CELL(abcABC):   12.41850    12.41850    12.41850    90.00000    90.00000    90.00000  Step:           0  Bead:       0 x_centroid{angstrom}  cell{angstrom}   
       O -7.44769e+01 -9.97801e+00  6.73400e+01             
       H -7.42838e+01 -9.77907e+00  6.63690e+01             
       H -7.35666e+01 -9.83023e+00  6.77740e+01             
       O -6.17943e+01 -6.57241e+00  5.69419e+01             
       H -6.30412e+01 -1.62619e+01  5.42610e+01             
       H -6.11820e+01 -5.83122e+00  5.69094e+01             
       O -6.71416e+01 -2.71339e+01  5.07600e+01             
       H -6.66937e+01 -1.42076e+01  5.14342e+01             
       H -6.63243e+01 -2.71995e+01  5.01914e+01             
       O -5.98753e+01 -2.10415e+01  5.54584e+01             
       H -5.88954e+01 -2.09606e+01  5.54775e+01             
       H -6.00887e+01 -2.03875e+01  5.47930e+01             
       O -5.28622e+01 -2.04550e+01  4.81252e+01             
       H -5.20604e+01 -2.00265e+01  4.84820e+01             
       H -5.24482e+01 -2.13508e+01  4.78675e+01             
       O -5.68188e+01 -1.84561e+01  6.27206e+01             
       H -5.61535e+01 -1.91309e+01  6.24132e+01             
       H -5.63712e+01 -1.78437e+01  6.34082e+01             
       O -6.28673e+01 -1.90082e+01  3.69879e+01             
       H -6.21562e+01 -1.88391e+01  3.63476e+01             
       H -5.24126e+01  1.79232e+00  5.25333e+01             
       O -4.63352e+01 -1.66582e+01  6.69383e+01             
       H -4.57829e+01 -1.65398e+01  6.76747e+01             
       H -4.58079e+01 -2.85883e+01  6.62750e+01             
       O -7.01977e+01 -9.76304e+00  4.09774e+01             
       H -6.97509e+01 -9.17716e+00  4.16908e+01             
       H -6.94037e+01 -1.01764e+01  4.05286e+01             
       O -6.36052e+01 -2.22314e+01  4.74909e+01             
       H -6.37492e+01 -2.28640e+01  4.67455e+01             
       H -6.27570e+01 -2.17688e+01  4.72669e+01             
       O -6.77645e+01 -6.23642e+00  5.58137e+01             
       H -6.72673e+01 -6.59799e+00  5.65276e+01             
       H -6.71666e+01 -6.08819e+00  5.50779e+01             
       O -6.46051e+01 -1.22708e+01  4.60320e+01             
       H -6.38880e+01 -1.26191e+01  4.54428e+01             
       H -5.45144e+01 -1.03895e+01  4.36279e+01             
       O -6.01242e+01 -3.10965e+01  4.13161e+01             
       H -5.94932e+01 -3.04244e+01  4.16864e+01             
       H -5.78152e+01 -2.73615e+01  6.00372e+01             
       O -7.10328e+01 -1.72697e+01  4.89610e+01             
       H -7.04995e+01 -1.78202e+01  4.95798e+01             
       H -7.04109e+01 -1.69470e+01  4.82212e+01             
       O -5.67498e+01 -2.37912e+01  5.85461e+01             
       H -5.62676e+01 -2.31925e+01  5.79227e+01             
       H -5.60887e+01 -2.45121e+01  5.85650e+01             
       O -6.38533e+01 -8.00300e+00  5.61571e+01             
       H -6.31463e+01 -7.32921e+00  5.63852e+01             
       H -6.33348e+01 -8.80206e+00  5.60200e+01             
       O -6.19986e+01 -7.58470e+00  3.96195e+01             
       H -6.16472e+01 -1.93687e+01  4.02652e+01             
       H -6.13212e+01 -8.26605e+00  3.96700e+01             
       O -6.44097e+01 -2.57215e+01  4.27750e+01             
       H -6.41595e+01 -2.59389e+01  4.18623e+01             
       H -6.35895e+01 -2.59097e+01  4.33127e+01             
       O -7.06535e+01 -1.16920e+01  5.03345e+01             
       H -6.98523e+01 -1.19046e+01  4.98494e+01             
       H -7.03476e+01 -1.08528e+01  5.07548e+01             
       O -6.42360e+01  7.54216e+00  4.61493e+01             
       H -4.74645e+01 -1.63774e+01  4.96724e+01             
       H -6.35273e+01  8.21860e+00  4.62748e+01             
       O -5.70026e+01 -1.66796e+01  5.68236e+01             
       H -5.95319e+01 -2.21294e+01  5.26648e+01             
       H -6.89622e+01 -1.74962e+01  5.65905e+01             
       O -5.74396e+01 -2.74124e+01  5.30357e+01             
       H -5.67467e+01 -2.78851e+01  5.25058e+01             
       H -5.68638e+01 -2.68049e+01  5.35566e+01             
       O -6.43702e+01 -2.01872e+01  5.32741e+01             
       H -6.40983e+01 -2.00577e+01  5.42009e+01             
       H -6.35117e+01 -2.03459e+01  5.27318e+01             
       O -6.15407e+01 -4.02038e+01  5.48633e+01             
       H -6.07797e+01 -4.06764e+01  5.45776e+01             
       H -6.15248e+01 -3.93490e+01  6.68029e+01             
       O -6.48663e+01 -2.62394e+00  4.90466e+01             
       H -6.44728e+01 -1.74700e+00  4.87902e+01             
       H -6.42051e+01 -3.00084e+00  4.97078e+01             
       O -5.38193e+01 -1.79146e+01  5.35680e+01             
       H -5.30699e+01 -1.73637e+01  5.38975e+01             
       H -5.32988e+01 -1.86539e+01  5.32058e+01             
       O -6.34217e+01 -2.39967e+01  6.45114e+01             
       H -6.27072e+01 -2.43946e+01  6.50192e+01             
       H -6.29616e+01 -2.38527e+01  6.36463e+01             
       O -7.85444e+01 -2.00812e+01  4.53177e+01             
       H -7.83963e+01 -1.98796e+01  4.62499e+01             
       H -7.77031e+01 -2.02212e+01  4.48472e+01             
       O -6.08109e+01 -1.13334e+00  6.07329e+01             
       H -6.08979e+01 -1.96509e+00  6.12476e+01             
       H -5.99110e+01 -1.34586e+00  6.03245e+01             
       O -6.33853e+01 -1.27308e+01  4.83648e+01             
       H -6.25214e+01 -1.30857e+01  4.81491e+01             
       H -6.31596e+01 -1.20016e+01  3.64648e+01             
       O -5.88036e+01 -1.21139e+01  2.97301e+01             
       H -5.78339e+01 -1.22882e+01  2.98121e+01             
       H -7.11952e+01 -1.11308e+01  2.95156e+01             
       O -5.00988e+01 -1.32293e+01  3.24430e+01             
       H -4.98793e+01 -1.41805e+01  3.25927e+01             
       H -4.92412e+01 -1.28200e+01  3.22774e+01             
       O -6.13299e+01 -2.36202e+01  3.76605e+01             
       H -6.06994e+01 -2.43222e+01  3.74002e+01             
       H -6.10569e+01 -2.28912e+01  4.95584e+01             
       O -5.67916e+01 -1.67895e+01  3.47909e+01             
       H -6.58423e+01 -1.09282e+01  4.19153e+01             
       H -5.69433e+01 -1.68285e+01  3.38649e+01             
       O -6.00454e+01 -2.44017e+01  5.71953e+01             
       H -5.93304e+01 -2.47190e+01  5.77575e+01             
       H -5.96320e+01 -2.44295e+01  5.62715e+01             
       O -4.88952e+01 -1.27471e+01  4.07215e+01             
       H -4.81511e+01 -1.31498e+01  4.01550e+01             
       H -4.84126e+01 -1.22107e+01  4.13276e+01             
       O -5.22716e+01 -2.62541e+01  5.23470e+01             
       H -5.19786e+01 -2.54034e+01  5.20162e+01             
       H -5.14663e+01 -2.67906e+01  5.22824e+01             
       O -5.86181e+01 -8.17864e+00  5.85287e+01             
       H -5.80194e+01 -8.37571e+00  5.78158e+01             
       H -5.80646e+01 -8.49174e+00  5.92645e+01             
       O -4.96248e+01  9.29695e+00  7.08399e+01             
       H -4.88332e+01  8.70792e+00  7.05946e+01             
       H -4.94441e+01  9.68556e+00  7.17245e+01             
       O -5.82162e+01 -2.65084e+01  5.99841e+01             
       H -6.23782e+01 -1.95408e+01  3.76300e+01             
       H -5.74977e+01 -2.58796e+01  5.98578e+01             
       O -6.38615e+01 -1.63699e+01  5.37379e+01             
       H -5.58517e+01 -1.68544e+01  3.49585e+01             
       H -6.34316e+01 -1.66463e+01  5.28980e+01             
       O -5.51020e+01 -9.83486e+00  4.42617e+01             
       H -6.37489e+01 -5.68524e+00  4.60124e+01             
       H -5.44806e+01 -9.23725e+00  4.47033e+01             
       O -5.59321e+01 -2.55051e+01  5.45203e+01             
       H -6.81585e+01 -2.60594e+01  6.77269e+01             
       H -4.88619e+01 -7.14746e+00  5.74506e+01             
       O -9.18207e+01 -1.33309e+01  5.90236e+01             
       H -9.08269e+01 -1.29852e+01  5.88331e+01             
       H -9.16976e+01 -1.42442e+01  5.93253e+01             
       O -6.05365e+01 -2.80559e+01  5.00548e+01             
       H -6.00847e+01 -2.73903e+01  5.06332e+01             
       H -5.64002e+01 -1.59076e+01  5.67075e+01             
       O -6.62516e+01 -1.14711e+01  4.25899e+01             
       H -6.55771e+01 -1.21462e+01  4.28708e+01             
       H -7.26439e+01 -2.14250e+01  2.10824e+01             
       O -6.94343e+01 -2.08223e+01  4.32943e+01             
       H -6.90793e+01 -1.99514e+01  4.32116e+01             
       H -6.86367e+01 -2.13987e+01  4.36495e+01             
       O -5.55849e+01 -2.31862e+01  3.95271e+01             
       H -5.54499e+01 -2.33132e+01  3.85587e+01             
       H -5.47115e+01 -2.27956e+01  3.98212e+01             
       O -4.34739e+01 -2.49582e+01  4.89970e+01             
       H -4.28489e+01 -1.30656e+01  4.95418e+01             
       H -4.29205e+01 -2.48729e+01  4.81698e+01             
       O -6.00832e+01 -8.90970e+00  4.93001e+01             
       H -4.67787e+01 -9.14504e+00  4.89935e+01             
       H -5.98232e+01 -8.49204e+00  5.01171e+01             
       O -5.31851e+01  2.31779e+00  5.28641e+01             
       H -5.96917e+01 -3.13372e+01  4.04154e+01             
       H -6.41188e+01  1.06847e-01  4.68538e+01             
       O -6.65172e+01 -1.65831e+01  4.73540e+01             
       H -6.57993e+01 -1.71525e+01  4.69738e+01             
       H -6.60478e+01 -1.61458e+01  4.80797e+01             
       O -6.33163e+01 -3.92173e+00  3.81730e+01             
       H -6.23773e+01 -1.61400e+01  3.81486e+01             
       H -6.33012e+01 -4.83099e+00  3.78610e+01             
       O -7.12272e+01 -2.00455e+01  5.14490e+01             
       H -7.04337e+01 -1.95781e+01  5.10557e+01             
       H -7.08297e+01 -2.06408e+01  5.20954e+01             
       O -5.99175e+01 -1.70534e+01  5.79547e+01             
       H -5.90459e+01 -1.67016e+01  5.77529e+01             
       H -5.97987e+01 -1.78408e+01  5.85546e+01             
       O -7.28348e+01 -2.21242e+01  3.99191e+01             
       H -7.30406e+01 -2.30012e+01  5.19440e+01             
       H -6.75968e+01 -3.73513e+01  4.19180e+01             
       O -5.51329e+01 -2.04769e+01  6.19535e+01             
       H -5.48326e+01 -2.08462e+01  6.27753e+01             
       H -5.42101e+01 -2.03706e+01  6.15172e+01             
       O -6.04866e+01 -1.86050e+01  4.77464e+01             
       H -5.97279e+01 -1.80529e+01  4.80653e+01             
       H -6.01605e+01 -1.94655e+01  4.80197e+01             
       O -7.79307e+01 -1.60426e+01  5.65522e+01             
       H -7.72361e+01 -1.55409e+01  5.61181e+01             
       H -7.74868e+01 -1.65923e+01  5.72404e+01             
       O -5.71130e+01 -2.16263e+01  4.81021e+01             
       H -5.63431e+01 -2.12651e+01  4.86054e+01             
       H -5.69354e+01 -2.24855e+01  4.77483e+01             
       O -7.15578e+01 -1.38539e+01  2.66129e+01             
       H -7.10761e+01 -1.30575e+01  2.62760e+01             
       H -7.09914e+01 -1.41991e+01  2.73446e+01             
       O -6.11788e+01 -2.17172e+01  2.09619e+01             
       H -4.03000e+01 -9.29296e+00  4.06800e+01             
       H -6.11251e+01 -2.25613e+01  2.05110e+01             
       O -6.80516e+01 -1.68461e+01  5.20345e+01             
       H -6.75072e+01 -1.72279e+01  5.26766e+01             
       H -6.75210e+01 -1.62560e+01  5.14448e+01             
       O -6.77283e+01 -1.46653e+01  6.89978e+01             
       H -6.67980e+01 -1.49963e+01  6.89829e+01             
       H -6.76373e+01 -1.39028e+01  6.95999e+01             
192                                                         
# CELL(abcABC):   12.41850    12.41850    12.41850    90.00000    90.00000    90.00000  Step:      200000  Bead:       0 x_centroid{angstrom}  cell{angstrom}   
       O -8.47029e+01 -1.34703e+01  7.46818e+01             
       H -8.39113e+01 -1.39223e+01  7.50117e+01             
       H -8.42672e+01 -1.30396e+01  7.38925e+01             
       O -7.29789e+01 -7.99187e+00  6.45952e+01             
       H -7.31514e+01 -1.89487e+01  5.88659e+01             
       H -7.23287e+01 -7.30459e+00  6.48940e+01             
       O -7.68528e+01 -2.91020e+01  5.64671e+01             
       H -7.63043e+01 -1.67149e+01  5.73289e+01             
       H -7.62650e+01 -2.92881e+01  5.57027e+01             
       O -7.30784e+01 -2.18780e+01  6.01092e+01             
       H -7.27279e+01 -2.17115e+01  5.91179e+01             
       H -7.21892e+01 -2.20376e+01  6.05554e+01             
       O -6.41366e+01 -2.37571e+01  5.51153e+01             
       H -6.39961e+01 -2.28036e+01  5.52171e+01             
       H -6.38615e+01 -2.41260e+01  5.42062e+01             
       O -6.77121e+01 -2.29398e+01  6.94038e+01             
       H -6.75609e+01 -2.33845e+01  6.85063e+01             
       H -6.68352e+01 -2.29783e+01  6.97983e+01             
       O -7.60839e+01 -2.11913e+01  4.35448e+01             
       H -7.51983e+01 -2.12035e+01  4.32328e+01             
       H -6.27932e+01 -1.32589e+00  5.69384e+01             
       O -5.79464e+01 -2.04893e+01  7.36778e+01             
       H -5.73707e+01 -2.03629e+01  7.44757e+01             
       H -5.72576e+01 -3.31801e+01  7.30335e+01             
       O -8.04434e+01 -1.42749e+01  4.54356e+01             
       H -8.02278e+01 -1.45432e+01  4.63187e+01             
       H -7.95710e+01 -1.43063e+01  4.48741e+01             
       O -7.60756e+01 -2.44971e+01  5.24910e+01             
       H -7.60390e+01 -2.54792e+01  5.23218e+01             
       H -7.52749e+01 -2.41629e+01  5.20194e+01             
       O -8.01063e+01 -9.54535e+00  6.51667e+01             
       H -7.96295e+01 -9.02984e+00  6.58163e+01             
       H -7.93984e+01 -1.00449e+01  6.46569e+01             
       O -7.60751e+01 -1.48648e+01  5.21104e+01             
       H -7.57485e+01 -1.46898e+01  5.11716e+01             
       H -6.65908e+01 -1.35479e+01  4.96077e+01             
       O -7.51032e+01 -3.56203e+01  4.86159e+01             
       H -7.42825e+01 -3.52868e+01  4.81789e+01             
       H -6.92233e+01 -2.79408e+01  6.75369e+01             
       O -8.17682e+01 -2.11054e+01  5.78718e+01             
       H -8.12132e+01 -2.03151e+01  5.79602e+01             
       H -8.11327e+01 -2.17740e+01  5.75351e+01             
       O -6.86978e+01 -2.61289e+01  6.47119e+01             
       H -6.79718e+01 -2.59181e+01  6.40771e+01             
       H -6.83278e+01 -2.66370e+01  6.54661e+01             
       O -7.72768e+01 -9.08351e+00  6.21541e+01             
       H -7.67577e+01 -8.36542e+00  6.24766e+01             
       H -7.66163e+01 -9.69210e+00  6.16153e+01             
       O -7.20422e+01 -9.07678e+00  4.51200e+01             
       H -7.20516e+01 -2.23921e+01  4.47413e+01             
       H -7.10331e+01 -8.88825e+00  4.52095e+01             
       O -7.65753e+01 -2.85630e+01  4.80811e+01             
       H -7.60629e+01 -2.89132e+01  4.72909e+01             
       H -7.58127e+01 -2.81441e+01  4.86819e+01             
       O -8.00970e+01 -1.55390e+01  5.42326e+01             
       H -7.96993e+01 -1.61703e+01  5.35388e+01             
       H -7.93294e+01 -1.53001e+01  5.48190e+01             
       O -7.54906e+01  5.22424e+00  5.06187e+01             
       H -5.76308e+01 -1.73702e+01  5.58888e+01             
       H -7.48468e+01  5.94132e+00  5.02449e+01             
       O -6.89933e+01 -2.00306e+01  6.36192e+01             
       H -7.16522e+01 -2.77491e+01  5.92035e+01             
       H -8.10783e+01 -2.08492e+01  6.40303e+01             
       O -6.77937e+01 -3.46478e+01  6.08945e+01             
       H -6.73186e+01 -3.46987e+01  6.00226e+01             
       H -6.71455e+01 -3.43443e+01  6.14894e+01             
       O -7.67640e+01 -2.50020e+01  5.94981e+01             
       H -7.60178e+01 -2.47073e+01  6.00430e+01             
       H -7.64254e+01 -2.52483e+01  5.85762e+01             
       O -7.21654e+01 -4.35710e+01  6.01355e+01             
       H -7.13781e+01 -4.29557e+01  5.99874e+01             
       H -7.17367e+01 -4.42460e+01  7.31421e+01             
       O -7.48686e+01 -5.02422e+00  5.45444e+01             
       H -7.43562e+01 -4.46636e+00  5.38200e+01             
       H -7.40786e+01 -5.45604e+00  5.50838e+01             
       O -6.37257e+01 -2.03022e+01  5.91506e+01             
       H -6.31212e+01 -1.96844e+01  5.86535e+01             
       H -6.30348e+01 -2.05701e+01  5.97857e+01             
       O -7.38122e+01 -2.69838e+01  6.94881e+01             
       H -7.32113e+01 -2.69615e+01  7.02959e+01             
       H -7.32027e+01 -2.70019e+01  6.86990e+01             
       O -9.05498e+01 -2.36293e+01  5.14587e+01             
       H -8.97200e+01 -2.39488e+01  5.18950e+01             
       H -9.02079e+01 -2.29087e+01  5.08423e+01             
       O -7.16566e+01 -4.35505e+00  6.40379e+01             
       H -7.11750e+01 -4.89247e+00  6.47118e+01             
       H -7.10529e+01 -3.70944e+00  6.36259e+01             
       O -7.36268e+01 -1.57517e+01  5.29224e+01             
       H -7.29342e+01 -1.61388e+01  5.22792e+01             
       H -7.30920e+01 -1.52627e+01  4.11893e+01             
       O -7.10941e+01 -1.24465e+01  3.51482e+01             
       H -7.09484e+01 -1.23911e+01  3.42100e+01             
       H -8.27292e+01 -1.21734e+01  3.57711e+01             
       O -6.22141e+01 -1.49796e+01  3.72131e+01             
       H -6.17096e+01 -1.57935e+01  3.73339e+01             
       H -6.13855e+01 -1.43476e+01  3.71330e+01             
       O -7.22741e+01 -2.69107e+01  4.24181e+01             
       H -7.14111e+01 -2.72699e+01  4.27353e+01             
       H -7.21881e+01 -2.59163e+01  5.48373e+01             
       O -6.59363e+01 -2.03646e+01  4.19460e+01             
       H -7.81682e+01 -1.37870e+01  4.76685e+01             
       H -6.52816e+01 -2.06318e+01  4.25805e+01             
       O -7.01775e+01 -2.73090e+01  6.27710e+01             
       H -6.96022e+01 -2.69371e+01  6.35175e+01             
       H -6.93968e+01 -2.75591e+01  6.21707e+01             
       O -5.79231e+01 -1.68889e+01  4.69245e+01             
       H -5.72440e+01 -1.73953e+01  4.64425e+01             
       H -5.73779e+01 -1.64916e+01  4.75862e+01             
       O -6.26683e+01 -2.90844e+01  5.82501e+01             
       H -6.22313e+01 -2.83094e+01  5.78865e+01             
       H -6.20374e+01 -2.98325e+01  5.81430e+01             
       O -7.14409e+01 -1.01964e+01  6.34638e+01             
       H -7.09483e+01 -1.05080e+01  6.26864e+01             
       H -7.08423e+01 -1.05889e+01  6.41203e+01             
       O -6.14490e+01  6.97438e+00  7.45401e+01             
       H -6.08428e+01  6.69031e+00  7.37296e+01             
       H -6.07869e+01  7.05546e+00  7.52666e+01             
       O -7.00154e+01 -2.80283e+01  6.81465e+01             
       H -7.60525e+01 -2.11418e+01  4.45291e+01             
       H -6.96496e+01 -2.76993e+01  6.90370e+01             
       O -7.38921e+01 -1.89308e+01  5.81869e+01             
       H -6.52700e+01 -2.00892e+01  4.12467e+01             
       H -7.34484e+01 -1.92168e+01  5.73326e+01             
       O -6.71297e+01 -1.31811e+01  5.03239e+01             
       H -7.49125e+01 -7.68295e+00  5.11761e+01             
       H -6.66002e+01 -1.23916e+01  5.05833e+01             
       O -6.83252e+01 -2.82599e+01  6.11714e+01             
       H -8.04212e+01 -2.90726e+01  7.41197e+01             
       H -5.99417e+01 -8.64057e+00  6.42143e+01             
       O -1.03129e+02 -1.66094e+01  6.45785e+01             
       H -1.02533e+02 -1.58284e+01  6.45557e+01             
       H -1.02489e+02 -1.72710e+01  6.49087e+01             
       O -7.03671e+01 -3.07226e+01  5.59226e+01             
       H -6.98333e+01 -3.11547e+01  5.66097e+01             
       H -6.82687e+01 -1.94391e+01  6.34338e+01             
       O -7.85687e+01 -1.45967e+01  4.80127e+01             
       H -7.76734e+01 -1.52315e+01  4.80176e+01             
       H -8.55170e+01 -2.32111e+01  2.62139e+01             
       O -8.17839e+01 -2.42097e+01  4.92900e+01             
       H -8.11158e+01 -2.34712e+01  4.89460e+01             
       H -8.11206e+01 -2.48084e+01  4.96854e+01             
       O -6.58528e+01 -2.68397e+01  4.37932e+01             
       H -6.55426e+01 -2.77804e+01  4.39190e+01             
       H -6.49647e+01 -2.63170e+01  4.39167e+01             
       O -5.42885e+01 -3.07365e+01  5.59201e+01             
       H -5.35647e+01 -1.77717e+01  5.62171e+01             
       H -5.39023e+01 -3.14538e+01  5.52660e+01             
       O -7.15624e+01 -1.16877e+01  5.53644e+01             
       H -5.84235e+01 -1.13859e+01  5.47146e+01             
       H -7.10500e+01 -1.20425e+01  5.61413e+01             
       O -6.36128e+01 -7.51948e-01  5.68685e+01             
       H -7.47100e+01 -3.57449e+01  4.94730e+01             
       H -7.52573e+01 -2.72029e+00  5.25977e+01             
       O -7.68827e+01 -1.87869e+01  5.26693e+01             
       H -7.63438e+01 -1.91336e+01  5.18873e+01             
       H -7.62409e+01 -1.85474e+01  5.34187e+01             
       O -7.29381e+01 -6.67325e+00  4.32460e+01             
       H -7.19342e+01 -1.88237e+01  4.34804e+01             
       H -7.31131e+01 -7.60600e+00  4.29864e+01             
       O -8.23815e+01 -2.43879e+01  5.75936e+01             
       H -8.16462e+01 -2.37908e+01  5.73798e+01             
       H -8.17287e+01 -2.51579e+01  5.77216e+01             
       O -7.09981e+01 -1.89445e+01  6.54981e+01             
       H -7.02681e+01 -1.93289e+01  6.50266e+01             
       H -7.06703e+01 -1.88971e+01  6.64632e+01             
       O -8.47986e+01 -2.71127e+01  4.69447e+01             
       H -8.43540e+01 -2.62865e+01  5.97527e+01             
       H -7.99253e+01 -4.02570e+01  4.83750e+01             
       O -6.67259e+01 -2.42649e+01  6.75864e+01             
       H -6.57333e+01 -2.40864e+01  6.74657e+01             
       H -6.67566e+01 -2.51776e+01  6.78685e+01             
       O -7.36170e+01 -2.18240e+01  5.46947e+01             
       H -7.28503e+01 -2.23340e+01  5.49085e+01             
       H -7.34698e+01 -2.13326e+01  5.38906e+01             
       O -9.08737e+01 -1.84718e+01  6.01480e+01             
       H -9.02196e+01 -1.77910e+01  6.02996e+01             
       H -9.02689e+01 -1.92376e+01  6.00257e+01             
       O -6.98325e+01 -2.36400e+01  5.32715e+01             
       H -6.89710e+01 -2.31172e+01  5.33221e+01             
       H -6.95036e+01 -2.45886e+01  5.31046e+01             
       O -8.05116e+01 -1.83392e+01  3.32189e+01             
       H -7.99707e+01 -1.83619e+01  3.23230e+01             
       H -7.97908e+01 -1.82347e+01  3.38818e+01             
       O -7.38426e+01 -2.38461e+01  2.61509e+01             
       H -5.10157e+01 -1.24150e+01  4.38423e+01             
       H -7.32158e+01 -2.45934e+01  2.59419e+01             
       O -7.80468e+01 -2.26038e+01  5.87992e+01             
       H -7.76806e+01 -2.34654e+01  5.91441e+01             
       H -7.72128e+01 -2.20602e+01  5.89784e+01             
       O -7.98575e+01 -1.79778e+01  7.50743e+01             
       H -7.93024e+01 -1.82615e+01  7.43186e+01             
       H -7.91559e+01 -1.75913e+01  7.57642e+01             
