192                                                         
# CELL(abcABC):   12.41850    12.41850    12.41850    90.00000    90.00000    90.00000  Step:           0  Bead:       0 x_centroid{angstrom}  cell{angstrom}   
       O -7.63160e+01 -1.02367e+01  7.03694e+01             
       H -7.62322e+01 -1.04180e+01  6.94440e+01             
       H -7.54581e+01 -1.05182e+01  7.07914e+01             
       O -6.26157e+01 -6.34332e+00  5.61986e+01             
       H -6.52878e+01 -1.80036e+01  5.33598e+01             
       H -6.20100e+01 -5.70365e+00  5.66852e+01             
       O -6.77731e+01 -2.71349e+01  5.15639e+01             
       H -6.73821e+01 -1.44458e+01  5.23880e+01             
       H -6.70046e+01 -2.71807e+01  5.09336e+01             
       O -6.02822e+01 -2.01295e+01  5.52898e+01             
       H -5.96838e+01 -2.05079e+01  5.59722e+01             
       H -5.96727e+01 -1.94631e+01  5.48337e+01             
       O -5.31245e+01 -2.11092e+01  4.80238e+01             
       H -5.24362e+01 -2.05054e+01  4.83853e+01             
       H -5.27305e+01 -2.19720e+01  4.79335e+01             
       O -5.76619e+01 -1.90872e+01  6.30206e+01             
       H -5.68669e+01 -1.94849e+01  6.26833e+01             
       H -5.73115e+01 -1.85122e+01  6.37104e+01             
       O -6.32539e+01 -1.97111e+01  3.69039e+01             
       H -6.25534e+01 -1.96107e+01  3.62421e+01             
       H -5.29020e+01  2.44837e+00  5.15623e+01             
       O -4.58726e+01 -1.85967e+01  6.65405e+01             
       H -4.60397e+01 -1.76243e+01  6.65885e+01             
       H -4.49135e+01 -3.11710e+01  6.65411e+01             
       O -7.04861e+01 -9.16643e+00  4.11628e+01             
       H -7.03350e+01 -8.40536e+00  4.17363e+01             
       H -6.97469e+01 -9.24468e+00  4.04162e+01             
       O -7.00564e+01 -2.24093e+01  4.89442e+01             
       H -6.96467e+01 -2.29481e+01  4.82437e+01             
       H -6.94037e+01 -2.19934e+01  4.95471e+01             
       O -6.91836e+01 -6.45249e+00  5.71792e+01             
       H -6.85910e+01 -6.60481e+00  5.78971e+01             
       H -6.86250e+01 -6.75462e+00  5.64259e+01             
       O -6.58813e+01 -1.19576e+01  4.67277e+01             
       H -6.52288e+01 -1.15238e+01  4.61355e+01             
       H -5.54037e+01 -1.04224e+01  4.40149e+01             
       O -6.18050e+01 -3.13382e+01  3.96578e+01             
       H -6.14866e+01 -3.04538e+01  3.94962e+01             
       H -5.88451e+01 -2.66341e+01  6.02848e+01             
       O -7.18540e+01 -1.74011e+01  4.91211e+01             
       H -7.12525e+01 -1.79841e+01  4.96071e+01             
       H -7.12754e+01 -1.68609e+01  4.86119e+01             
       O -5.69086e+01 -2.37086e+01  5.93238e+01             
       H -5.65142e+01 -2.31275e+01  5.85865e+01             
       H -5.65277e+01 -2.45921e+01  5.91449e+01             
       O -6.44119e+01 -7.43186e+00  5.78837e+01             
       H -6.36467e+01 -7.09188e+00  5.74178e+01             
       H -6.41333e+01 -8.32700e+00  5.81229e+01             
       O -6.37958e+01 -8.23461e+00  4.07169e+01             
       H -6.31309e+01 -1.99371e+01  4.05143e+01             
       H -6.31836e+01 -8.97860e+00  4.08201e+01             
       O -6.33295e+01 -2.35759e+01  4.30371e+01             
       H -6.27111e+01 -2.31434e+01  4.23731e+01             
       H -6.29459e+01 -2.43744e+01  4.34053e+01             
       O -7.25604e+01 -1.19040e+01  5.25948e+01             
       H -7.22619e+01 -1.17218e+01  5.17131e+01             
       H -7.17932e+01 -1.17468e+01  5.32071e+01             
       O -6.50649e+01  7.86143e+00  4.62247e+01             
       H -4.81482e+01 -1.66103e+01  5.04130e+01             
       H -6.42647e+01  8.47846e+00  4.62920e+01             
       O -5.85620e+01 -1.68297e+01  5.72225e+01             
       H -6.11210e+01 -2.14724e+01  5.40682e+01             
       H -7.03328e+01 -1.75611e+01  5.71807e+01             
       O -5.74787e+01 -2.79888e+01  5.38484e+01             
       H -5.68029e+01 -2.85506e+01  5.34474e+01             
       H -5.70183e+01 -2.77401e+01  5.46939e+01             
       O -6.56942e+01 -2.05799e+01  5.50151e+01             
       H -6.52651e+01 -2.02608e+01  5.58639e+01             
       H -6.49514e+01 -2.03858e+01  5.43579e+01             
       O -6.41668e+01 -4.19358e+01  5.45149e+01             
       H -6.36065e+01 -4.26542e+01  5.49647e+01             
       H -6.35900e+01 -4.11627e+01  6.69337e+01             
       O -6.57667e+01 -2.54560e+00  4.96840e+01             
       H -6.53018e+01 -1.72938e+00  4.95986e+01             
       H -6.51353e+01 -3.27361e+00  4.98186e+01             
       O -5.53814e+01 -1.90984e+01  5.47737e+01             
       H -5.50346e+01 -1.82070e+01  5.49079e+01             
       H -5.45587e+01 -1.95661e+01  5.49632e+01             
       O -6.34738e+01 -2.54833e+01  6.51585e+01             
       H -6.28920e+01 -2.60305e+01  6.57792e+01             
       H -6.33306e+01 -2.58746e+01  6.43147e+01             
       O -7.95810e+01 -2.01073e+01  4.60870e+01             
       H -7.93600e+01 -2.05766e+01  4.69006e+01             
       H -7.86899e+01 -1.97917e+01  4.59389e+01             
       O -6.20466e+01 -2.03024e+00  6.10986e+01             
       H -6.21946e+01 -2.71189e+00  6.17341e+01             
       H -6.10253e+01 -1.82013e+00  6.12168e+01             
       O -6.42177e+01 -1.24922e+01  4.90517e+01             
       H -6.33724e+01 -1.29181e+01  4.88769e+01             
       H -6.40487e+01 -1.18783e+01  3.74054e+01             
       O -5.83670e+01 -1.16675e+01  2.98339e+01             
       H -5.74075e+01 -1.19274e+01  2.96907e+01             
       H -7.06671e+01 -1.07461e+01  2.97402e+01             
       O -4.99024e+01 -1.33001e+01  3.20020e+01             
       H -5.03877e+01 -1.37269e+01  3.27374e+01             
       H -4.89613e+01 -1.30876e+01  3.22486e+01             
       O -6.39075e+01 -2.33238e+01  3.88650e+01             
       H -6.36399e+01 -2.38881e+01  3.96358e+01             
       H -6.30648e+01 -2.28357e+01  5.10170e+01             
       O -5.76399e+01 -1.59647e+01  3.49188e+01             
       H -6.61721e+01 -9.86966e+00  4.27320e+01             
       H -5.76805e+01 -1.61976e+01  3.39818e+01             
       O -5.97497e+01 -2.47009e+01  5.70838e+01             
       H -5.89609e+01 -2.46754e+01  5.76005e+01             
       H -5.94309e+01 -2.45486e+01  5.61497e+01             
       O -5.00115e+01 -1.48034e+01  4.19427e+01             
       H -4.90408e+01 -1.48743e+01  4.15638e+01             
       H -4.98542e+01 -1.43730e+01  4.27883e+01             
       O -5.34283e+01 -2.64579e+01  5.36994e+01             
       H -5.26515e+01 -2.60923e+01  5.32324e+01             
       H -5.30751e+01 -2.71561e+01  5.42591e+01             
       O -5.94679e+01 -8.73924e+00  5.95899e+01             
       H -5.90424e+01 -8.63136e+00  5.87528e+01             
       H -5.87721e+01 -9.15591e+00  6.01637e+01             
       O -5.06489e+01  9.48542e+00  7.11659e+01             
       H -4.99119e+01  9.01270e+00  7.07582e+01             
       H -5.02959e+01  9.73768e+00  7.20221e+01             
       O -5.93069e+01 -2.64190e+01  6.10744e+01             
       H -6.27517e+01 -2.02670e+01  3.75641e+01             
       H -5.87726e+01 -2.68241e+01  6.17563e+01             
       O -6.58500e+01 -1.81810e+01  5.25482e+01             
       H -5.67159e+01 -1.59218e+01  3.51656e+01             
       H -6.51702e+01 -1.79405e+01  5.18710e+01             
       O -5.59248e+01 -9.81581e+00  4.45688e+01             
       H -6.48263e+01 -5.44886e+00  4.64732e+01             
       H -5.52889e+01 -9.23903e+00  4.49724e+01             
       O -5.57879e+01 -2.45457e+01  5.40735e+01             
       H -6.78283e+01 -2.54386e+01  6.64174e+01             
       H -4.95300e+01 -6.89546e+00  5.58114e+01             
       O -9.28784e+01 -1.35048e+01  5.86220e+01             
       H -9.20130e+01 -1.30705e+01  5.84189e+01             
       H -9.26222e+01 -1.43738e+01  5.90175e+01             
       O -6.12467e+01 -2.87324e+01  5.10559e+01             
       H -6.06902e+01 -2.81577e+01  5.16538e+01             
       H -5.80322e+01 -1.61402e+01  5.68230e+01             
       O -6.62111e+01 -1.08620e+01  4.28914e+01             
       H -6.53138e+01 -1.11921e+01  4.28389e+01             
       H -7.31106e+01 -2.28451e+01  2.21520e+01             
       O -7.08336e+01 -2.11844e+01  4.45586e+01             
       H -7.04065e+01 -2.03283e+01  4.47138e+01             
       H -6.99407e+01 -2.16551e+01  4.43713e+01             
       O -5.61558e+01 -2.24487e+01  3.94443e+01             
       H -5.59930e+01 -2.33017e+01  3.98941e+01             
       H -5.52346e+01 -2.21445e+01  3.94890e+01             
       O -4.56921e+01 -2.63151e+01  5.10907e+01             
       H -4.48469e+01 -1.42134e+01  5.14714e+01             
       H -4.54699e+01 -2.54119e+01  5.07421e+01             
       O -6.16659e+01 -9.59211e+00  5.04241e+01             
       H -4.86853e+01 -1.01288e+01  4.98734e+01             
       H -6.09575e+01 -9.01632e+00  5.08922e+01             
       O -5.35536e+01  3.13828e+00  5.17185e+01             
       H -6.09623e+01 -3.17728e+01  3.97770e+01             
       H -6.53499e+01  2.91453e-01  4.75942e+01             
       O -6.73942e+01 -1.56880e+01  4.75501e+01             
       H -6.67303e+01 -1.62370e+01  4.71644e+01             
       H -6.68012e+01 -1.53052e+01  4.82964e+01             
       O -6.39261e+01 -4.71868e+00  3.80212e+01             
       H -6.30028e+01 -1.68383e+01  3.82570e+01             
       H -6.38052e+01 -5.63255e+00  3.76845e+01             
       O -7.21094e+01 -2.05843e+01  5.15270e+01             
       H -7.14133e+01 -2.00454e+01  5.10560e+01             
       H -7.15350e+01 -2.10746e+01  5.21849e+01             
       O -6.11642e+01 -1.70353e+01  5.78628e+01             
       H -6.02203e+01 -1.68410e+01  5.75089e+01             
       H -6.09127e+01 -1.76975e+01  5.85444e+01             
       O -7.41245e+01 -2.20825e+01  4.12223e+01             
       H -7.34986e+01 -2.27533e+01  5.32362e+01             
       H -6.73873e+01 -3.64642e+01  4.19698e+01             
       O -5.50683e+01 -2.00898e+01  6.22273e+01             
       H -5.45840e+01 -2.04335e+01  6.29595e+01             
       H -5.45251e+01 -2.05713e+01  6.15729e+01             
       O -6.12047e+01 -1.89440e+01  4.75319e+01             
       H -6.07671e+01 -1.86101e+01  4.83462e+01             
       H -6.06643e+01 -1.96915e+01  4.72488e+01             
       O -7.86697e+01 -1.65982e+01  5.61571e+01             
       H -7.80009e+01 -1.66958e+01  5.55018e+01             
       H -7.82848e+01 -1.67451e+01  5.70783e+01             
       O -5.95813e+01 -2.39290e+01  4.98245e+01             
       H -5.88395e+01 -2.33089e+01  4.95007e+01             
       H -5.93871e+01 -2.47845e+01  4.94257e+01             
       O -7.25916e+01 -1.48859e+01  2.82451e+01             
       H -7.22585e+01 -1.40033e+01  2.80058e+01             
       H -7.17109e+01 -1.52304e+01  2.86645e+01             
       O -6.14017e+01 -2.32320e+01  2.16129e+01             
       H -4.05653e+01 -8.72478e+00  3.99029e+01             
       H -6.08334e+01 -2.35398e+01  2.08393e+01             
       O -6.84275e+01 -1.72100e+01  5.24250e+01             
       H -6.75724e+01 -1.76393e+01  5.26371e+01             
       H -6.81074e+01 -1.65540e+01  5.17645e+01             
       O -6.87276e+01 -1.53896e+01  6.86478e+01             
       H -6.78185e+01 -1.58334e+01  6.85508e+01             
       H -6.84919e+01 -1.46006e+01  6.91826e+01             
192                                                         
# CELL(abcABC):   12.41850    12.41850    12.41850    90.00000    90.00000    90.00000  Step:      200000  Bead:       0 x_centroid{angstrom}  cell{angstrom}   
       O -8.96602e+01 -1.47555e+01  7.85085e+01             
       H -8.91325e+01 -1.44554e+01  7.77491e+01             
       H -8.89945e+01 -1.52953e+01  7.89582e+01             
       O -7.70677e+01 -9.51844e+00  6.27459e+01             
       H -7.84404e+01 -2.02388e+01  5.97206e+01             
       H -7.64229e+01 -9.30602e+00  6.34881e+01             
       O -8.20336e+01 -3.11034e+01  5.82948e+01             
       H -8.13073e+01 -1.80685e+01  5.87444e+01             
       H -8.14330e+01 -3.15218e+01  5.75841e+01             
       O -7.40478e+01 -2.56630e+01  6.27095e+01             
       H -7.35946e+01 -2.62869e+01  6.33046e+01             
       H -7.33810e+01 -2.49791e+01  6.24357e+01             
       O -6.62791e+01 -2.54116e+01  5.56697e+01             
       H -6.57369e+01 -2.49636e+01  5.63875e+01             
       H -6.56933e+01 -2.59419e+01  5.51157e+01             
       O -7.03735e+01 -2.31687e+01  6.98442e+01             
       H -6.98284e+01 -2.38239e+01  6.93477e+01             
       H -6.97218e+01 -2.25864e+01  7.03283e+01             
       O -7.69994e+01 -2.35682e+01  4.47126e+01             
       H -7.61738e+01 -2.37655e+01  4.43244e+01             
       H -6.65003e+01  1.61966e-01  5.95757e+01             
       O -6.04520e+01 -2.35018e+01  7.38847e+01             
       H -5.99058e+01 -2.29045e+01  7.43293e+01             
       H -5.98320e+01 -3.62715e+01  7.31732e+01             
       O -8.19590e+01 -1.08555e+01  4.87068e+01             
       H -8.14838e+01 -1.03714e+01  4.80276e+01             
       H -8.13325e+01 -1.15142e+01  4.90301e+01             
       O -8.28194e+01 -2.72569e+01  5.57864e+01             
       H -8.24420e+01 -2.76765e+01  5.49228e+01             
       H -8.21006e+01 -2.66354e+01  5.60888e+01             
       O -8.26227e+01 -1.00815e+01  6.53801e+01             
       H -8.16540e+01 -1.00565e+01  6.55900e+01             
       H -8.24825e+01 -9.91241e+00  6.43709e+01             
       O -7.93891e+01 -1.62506e+01  5.30360e+01             
       H -7.87601e+01 -1.55813e+01  5.33273e+01             
       H -7.13972e+01 -1.30576e+01  5.24402e+01             
       O -7.52524e+01 -3.47487e+01  4.83728e+01             
       H -7.50438e+01 -3.40797e+01  4.75730e+01             
       H -7.28787e+01 -3.14813e+01  6.74365e+01             
       O -8.52251e+01 -2.21015e+01  5.65400e+01             
       H -8.42794e+01 -2.24275e+01  5.66121e+01             
       H -8.51186e+01 -2.16011e+01  5.57448e+01             
       O -7.30569e+01 -2.80165e+01  6.39633e+01             
       H -7.24997e+01 -2.82260e+01  6.31912e+01             
       H -7.24493e+01 -2.78820e+01  6.47351e+01             
       O -7.60879e+01 -1.28128e+01  6.43782e+01             
       H -7.56241e+01 -1.23142e+01  6.51234e+01             
       H -7.54186e+01 -1.27266e+01  6.36618e+01             
       O -7.71192e+01 -1.16138e+01  4.73810e+01             
       H -7.64492e+01 -2.33242e+01  4.77508e+01             
       H -7.65741e+01 -1.23510e+01  4.77751e+01             
       O -7.95693e+01 -2.80084e+01  5.02910e+01             
       H -7.86751e+01 -2.81576e+01  4.98531e+01             
       H -7.94250e+01 -2.82096e+01  5.12251e+01             
       O -8.54390e+01 -1.66612e+01  5.92254e+01             
       H -8.47312e+01 -1.68408e+01  5.84613e+01             
       H -8.49314e+01 -1.63660e+01  6.00386e+01             
       O -7.99948e+01  5.07955e+00  5.29381e+01             
       H -6.17097e+01 -2.14492e+01  5.81218e+01             
       H -7.91796e+01  5.54340e+00  5.31577e+01             
       O -7.34485e+01 -1.96085e+01  6.41613e+01             
       H -7.51524e+01 -2.61448e+01  6.15807e+01             
       H -8.52211e+01 -1.97145e+01  6.49288e+01             
       O -7.16831e+01 -3.17443e+01  6.21202e+01             
       H -7.11322e+01 -3.09522e+01  6.22584e+01             
       H -7.10448e+01 -3.25514e+01  6.20398e+01             
       O -7.83344e+01 -2.40833e+01  6.35907e+01             
       H -7.80183e+01 -2.32084e+01  6.33503e+01             
       H -7.75140e+01 -2.46104e+01  6.37562e+01             
       O -7.83560e+01 -4.45711e+01  6.16099e+01             
       H -7.79277e+01 -4.53627e+01  6.20927e+01             
       H -7.75165e+01 -4.39582e+01  7.40480e+01             
       O -8.02080e+01 -6.98334e+00  5.64258e+01             
       H -7.93885e+01 -6.36894e+00  5.65121e+01             
       H -7.98705e+01 -7.91347e+00  5.65217e+01             
       O -7.01349e+01 -2.12160e+01  6.25576e+01             
       H -6.92912e+01 -2.05712e+01  6.26793e+01             
       H -6.97928e+01 -2.19759e+01  6.19784e+01             
       O -7.74455e+01 -2.83140e+01  7.36959e+01             
       H -7.67969e+01 -2.75307e+01  7.36620e+01             
       H -7.69661e+01 -2.91600e+01  7.35590e+01             
       O -9.23222e+01 -2.26990e+01  5.31476e+01             
       H -9.18721e+01 -2.26521e+01  5.41332e+01             
       H -9.18000e+01 -2.33993e+01  5.26090e+01             
       O -7.55800e+01 -6.63103e+00  6.92066e+01             
       H -7.55297e+01 -7.28426e+00  6.99622e+01             
       H -7.45783e+01 -6.58866e+00  6.89889e+01             
       O -7.82764e+01 -1.77117e+01  5.73073e+01             
       H -7.73891e+01 -1.80362e+01  5.71246e+01             
       H -7.82278e+01 -1.67590e+01  4.49632e+01             
       O -7.39667e+01 -1.42971e+01  3.41082e+01             
       H -7.34913e+01 -1.52397e+01  3.42157e+01             
       H -8.56789e+01 -1.36152e+01  3.41497e+01             
       O -6.52887e+01 -1.82961e+01  4.07848e+01             
       H -6.49482e+01 -1.89978e+01  4.13958e+01             
       H -6.44665e+01 -1.82046e+01  4.02152e+01             
       O -8.05181e+01 -2.91126e+01  4.68501e+01             
       H -8.05915e+01 -2.93871e+01  4.77961e+01             
       H -7.95659e+01 -2.89245e+01  5.90528e+01             
       O -7.18951e+01 -2.04151e+01  4.15624e+01             
       H -8.18912e+01 -1.34195e+01  5.11248e+01             
       H -7.14837e+01 -2.12847e+01  4.14231e+01             
       O -7.51924e+01 -2.99392e+01  6.40440e+01             
       H -7.45521e+01 -3.07823e+01  6.42989e+01             
       H -7.46370e+01 -2.92282e+01  6.40282e+01             
       O -6.36608e+01 -1.81600e+01  4.91488e+01             
       H -6.28399e+01 -1.84784e+01  4.86827e+01             
       H -6.32933e+01 -1.79382e+01  5.00598e+01             
       O -6.81586e+01 -2.49645e+01  6.26129e+01             
       H -6.78623e+01 -2.58538e+01  6.22544e+01             
       H -6.73329e+01 -2.46114e+01  6.30529e+01             
       O -7.27867e+01 -1.37124e+01  6.74500e+01             
       H -7.23973e+01 -1.32236e+01  6.67006e+01             
       H -7.18976e+01 -1.39527e+01  6.78647e+01             
       O -6.42829e+01  4.66259e+00  7.94821e+01             
       H -6.35876e+01  4.32527e+00  7.88212e+01             
       H -6.38702e+01  5.09968e+00  8.02805e+01             
       O -7.32511e+01 -3.07416e+01  6.79221e+01             
       H -7.70209e+01 -2.39563e+01  4.55754e+01             
       H -7.24737e+01 -3.02664e+01  6.83101e+01             
       O -7.86498e+01 -2.06954e+01  5.89007e+01             
       H -7.10588e+01 -1.98862e+01  4.18338e+01             
       H -7.78204e+01 -2.11302e+01  5.85897e+01             
       O -7.20330e+01 -1.24125e+01  5.27633e+01             
       H -7.97883e+01 -8.31664e+00  5.28662e+01             
       H -7.14259e+01 -1.15975e+01  5.28377e+01             
       O -7.12785e+01 -2.83888e+01  6.15201e+01             
       H -8.34624e+01 -2.74678e+01  7.35803e+01             
       H -6.39929e+01 -9.73203e+00  6.20356e+01             
       O -1.06686e+02 -1.61541e+01  6.59377e+01             
       H -1.05716e+02 -1.62199e+01  6.58411e+01             
       H -1.07022e+02 -1.70570e+01  6.61515e+01             
       O -7.47771e+01 -3.33284e+01  5.86381e+01             
       H -7.43207e+01 -3.25965e+01  5.91045e+01             
       H -7.28214e+01 -1.94211e+01  6.33768e+01             
       O -8.26438e+01 -1.39262e+01  5.15917e+01             
       H -8.21721e+01 -1.46002e+01  5.21276e+01             
       H -8.66969e+01 -2.76637e+01  2.99636e+01             
       O -8.70568e+01 -2.39193e+01  5.35013e+01             
       H -8.71716e+01 -2.39608e+01  5.44759e+01             
       H -8.60908e+01 -2.41787e+01  5.32783e+01             
       O -6.99411e+01 -2.65095e+01  4.72665e+01             
       H -6.90811e+01 -2.60659e+01  4.74048e+01             
       H -6.96904e+01 -2.73437e+01  4.69122e+01             
       O -5.89287e+01 -2.94071e+01  5.72715e+01             
       H -5.82019e+01 -1.76535e+01  5.77004e+01             
       H -5.85301e+01 -2.85821e+01  5.69149e+01             
       O -7.84026e+01 -1.50836e+01  5.88238e+01             
       H -6.57794e+01 -1.53400e+01  5.98018e+01             
       H -7.74979e+01 -1.48534e+01  5.83908e+01             
       O -6.73052e+01 -3.89971e-01  5.92355e+01             
       H -7.43898e+01 -3.51251e+01  4.85388e+01             
       H -7.88133e+01 -4.64873e+00  5.31756e+01             
       O -8.21466e+01 -1.90712e+01  5.44463e+01             
       H -8.14482e+01 -1.94520e+01  5.38620e+01             
       H -8.16621e+01 -1.91250e+01  5.53040e+01             
       O -7.84461e+01 -9.58346e+00  4.29976e+01             
       H -7.78426e+01 -2.12826e+01  4.26926e+01             
       H -7.78841e+01 -1.00071e+01  4.37108e+01             
       O -8.44747e+01 -2.44227e+01  5.91128e+01             
       H -8.40759e+01 -2.39084e+01  5.83487e+01             
       H -8.37382e+01 -2.50162e+01  5.92693e+01             
       O -7.53870e+01 -2.13220e+01  6.48718e+01             
       H -7.46556e+01 -2.08909e+01  6.44692e+01             
       H -7.49790e+01 -2.21472e+01  6.51618e+01             
       O -8.81467e+01 -2.63371e+01  4.83839e+01             
       H -8.73576e+01 -2.65141e+01  6.01409e+01             
       H -8.27584e+01 -4.12462e+01  4.91545e+01             
       O -6.87666e+01 -2.51883e+01  6.91873e+01             
       H -6.82131e+01 -2.52431e+01  7.00068e+01             
       H -6.79984e+01 -2.52452e+01  6.85601e+01             
       O -7.44425e+01 -2.41264e+01  5.61649e+01             
       H -7.39190e+01 -2.34055e+01  5.65264e+01             
       H -7.38241e+01 -2.49381e+01  5.60178e+01             
       O -9.32200e+01 -1.94003e+01  6.28594e+01             
       H -9.23028e+01 -1.93964e+01  6.24089e+01             
       H -9.28516e+01 -1.92845e+01  6.38093e+01             
       O -7.60988e+01 -2.71524e+01  5.72831e+01             
       H -7.55858e+01 -2.76422e+01  5.66167e+01             
       H -7.53911e+01 -2.67338e+01  5.78205e+01             
       O -8.62419e+01 -1.91465e+01  3.54913e+01             
       H -8.58359e+01 -1.83262e+01  3.50774e+01             
       H -8.55472e+01 -1.93911e+01  3.61069e+01             
       O -7.49318e+01 -2.82904e+01  3.02371e+01             
       H -5.45200e+01 -1.37253e+01  4.65448e+01             
       H -7.44222e+01 -2.91576e+01  3.02395e+01             
       O -8.11314e+01 -2.15458e+01  5.90524e+01             
       H -8.01776e+01 -2.13234e+01  5.90353e+01             
       H -8.15393e+01 -2.06609e+01  5.91001e+01             
       O -8.13804e+01 -1.70897e+01  7.41866e+01             
       H -8.13231e+01 -1.79597e+01  7.46426e+01             
       H -8.06562e+01 -1.65094e+01  7.45682e+01             
