192                                                         
# CELL(abcABC):   12.41850    12.41850    12.41850    90.00000    90.00000    90.00000  Step:           0  Bead:       0 x_centroid{angstrom}  cell{angstrom}   
       O -7.42276e+01 -1.04318e+01  6.76234e+01             
       H -7.38321e+01 -1.12250e+01  6.71930e+01             
       H -7.35072e+01 -9.82194e+00  6.77731e+01             
       O -6.14482e+01 -6.66929e+00  5.73848e+01             
       H -6.26395e+01 -1.54140e+01  5.30049e+01             
       H -6.06122e+01 -6.43428e+00  5.69195e+01             
       O -6.64309e+01 -2.57885e+01  4.94975e+01             
       H -6.58547e+01 -1.34459e+01  5.03478e+01             
       H -6.58225e+01 -2.62699e+01  4.89216e+01             
       O -5.96309e+01 -2.10336e+01  5.49548e+01             
       H -5.88304e+01 -2.10061e+01  5.55129e+01             
       H -5.98695e+01 -2.01332e+01  5.49827e+01             
       O -5.24909e+01 -2.05327e+01  4.78834e+01             
       H -5.17895e+01 -2.00144e+01  4.82304e+01             
       H -5.20915e+01 -2.14456e+01  4.79837e+01             
       O -5.59340e+01 -1.85418e+01  6.27180e+01             
       H -5.53536e+01 -1.92478e+01  6.23302e+01             
       H -5.54441e+01 -1.78389e+01  6.31632e+01             
       O -6.25507e+01 -1.91195e+01  3.64532e+01             
       H -6.16418e+01 -1.91741e+01  3.60166e+01             
       H -5.12412e+01  2.47156e+00  5.23043e+01             
       O -4.59379e+01 -1.53451e+01  6.66342e+01             
       H -4.54038e+01 -1.54213e+01  6.74281e+01             
       H -4.53520e+01 -2.73070e+01  6.59395e+01             
       O -6.83238e+01 -9.58416e+00  4.13155e+01             
       H -6.75568e+01 -9.30571e+00  4.17838e+01             
       H -6.80801e+01 -1.01307e+01  4.06349e+01             
       O -6.37935e+01 -2.29479e+01  4.85964e+01             
       H -6.31899e+01 -2.33874e+01  4.79542e+01             
       H -6.34562e+01 -2.29537e+01  4.95098e+01             
       O -6.83362e+01 -6.27396e+00  5.59278e+01             
       H -6.77735e+01 -6.41403e+00  5.67335e+01             
       H -6.76841e+01 -5.90991e+00  5.52641e+01             
       O -6.34191e+01 -1.02842e+01  4.48439e+01             
       H -6.27131e+01 -1.01333e+01  4.55305e+01             
       H -5.40404e+01 -1.03988e+01  4.37942e+01             
       O -5.90286e+01 -3.04816e+01  4.06195e+01             
       H -5.84893e+01 -2.96399e+01  4.07341e+01             
       H -5.70742e+01 -2.66343e+01  5.76544e+01             
       O -7.04074e+01 -1.73421e+01  4.91578e+01             
       H -6.96464e+01 -1.78723e+01  4.96081e+01             
       H -6.99290e+01 -1.68275e+01  4.84854e+01             
       O -5.54368e+01 -2.37889e+01  5.88132e+01             
       H -5.51673e+01 -2.31951e+01  5.80064e+01             
       H -5.45838e+01 -2.41186e+01  5.90970e+01             
       O -6.34488e+01 -7.68423e+00  5.59987e+01             
       H -6.26281e+01 -7.37294e+00  5.64712e+01             
       H -6.34106e+01 -8.62024e+00  5.61205e+01             
       O -6.15658e+01 -6.52553e+00  3.96489e+01             
       H -6.08019e+01 -1.83300e+01  3.97316e+01             
       H -6.10592e+01 -7.33896e+00  3.97564e+01             
       O -6.35121e+01 -2.55833e+01  4.24925e+01             
       H -6.28243e+01 -2.56317e+01  4.17847e+01             
       H -6.31074e+01 -2.56943e+01  4.33598e+01             
       O -7.03549e+01 -1.22932e+01  4.86681e+01             
       H -6.99005e+01 -1.29994e+01  4.90752e+01             
       H -6.97734e+01 -1.16279e+01  4.83560e+01             
       O -6.36012e+01  7.66880e+00  4.57489e+01             
       H -4.65567e+01 -1.62136e+01  5.00891e+01             
       H -6.32370e+01  8.25472e+00  4.63748e+01             
       O -5.64161e+01 -1.54250e+01  5.63834e+01             
       H -6.03203e+01 -2.16911e+01  5.28600e+01             
       H -6.86368e+01 -1.62646e+01  5.68143e+01             
       O -5.72224e+01 -2.60908e+01  5.24299e+01             
       H -5.67148e+01 -2.64081e+01  5.16514e+01             
       H -5.65922e+01 -2.57467e+01  5.30863e+01             
       O -6.37900e+01 -1.91527e+01  5.33412e+01             
       H -6.35078e+01 -1.95179e+01  5.42044e+01             
       H -6.29962e+01 -1.88552e+01  5.28812e+01             
       O -6.12270e+01 -3.99734e+01  5.38467e+01             
       H -6.04751e+01 -4.05322e+01  5.40021e+01             
       H -6.08882e+01 -3.90730e+01  6.63251e+01             
       O -6.48227e+01 -2.63384e+00  4.80674e+01             
       H -6.41397e+01 -1.96677e+00  4.76599e+01             
       H -6.43798e+01 -3.06297e+00  4.87753e+01             
       O -5.37082e+01 -1.76590e+01  5.42818e+01             
       H -5.31799e+01 -1.70023e+01  5.48894e+01             
       H -5.29822e+01 -1.80942e+01  5.38881e+01             
       O -6.22027e+01 -2.32684e+01  6.31990e+01             
       H -6.15394e+01 -2.27899e+01  6.37408e+01             
       H -6.15114e+01 -2.37026e+01  6.25792e+01             
       O -7.81847e+01 -1.99517e+01  4.51870e+01             
       H -7.77518e+01 -2.00449e+01  4.60625e+01             
       H -7.74794e+01 -1.97833e+01  4.45742e+01             
       O -5.94124e+01 -2.21023e+00  5.98826e+01             
       H -5.96047e+01 -2.37914e+00  6.08238e+01             
       H -5.87405e+01 -1.51084e+00  5.97282e+01             
       O -6.29302e+01 -1.31091e+01  4.71557e+01             
       H -6.26323e+01 -1.33148e+01  4.62730e+01             
       H -6.20732e+01 -1.29856e+01  3.52429e+01             
       O -5.81980e+01 -1.15865e+01  3.01438e+01             
       H -5.73368e+01 -1.20721e+01  3.00295e+01             
       H -7.05411e+01 -1.07273e+01  2.97493e+01             
       O -4.96580e+01 -1.35386e+01  3.22960e+01             
       H -4.92452e+01 -1.44425e+01  3.23606e+01             
       H -4.88964e+01 -1.29510e+01  3.20037e+01             
       O -6.09057e+01 -2.44284e+01  3.63090e+01             
       H -5.99332e+01 -2.47661e+01  3.63622e+01             
       H -6.07729e+01 -2.38106e+01  4.79805e+01             
       O -5.65202e+01 -1.66050e+01  3.42897e+01             
       H -6.47293e+01 -1.06853e+01  4.16664e+01             
       H -5.69289e+01 -1.58527e+01  3.39178e+01             
       O -5.96167e+01 -2.46755e+01  5.71501e+01             
       H -5.88287e+01 -2.51122e+01  5.75265e+01             
       H -5.92437e+01 -2.42871e+01  5.63146e+01             
       O -4.81479e+01 -1.25095e+01  4.16348e+01             
       H -4.80481e+01 -1.22264e+01  4.07537e+01             
       H -4.72637e+01 -1.23324e+01  4.20284e+01             
       O -5.26403e+01 -2.58339e+01  5.18874e+01             
       H -5.21399e+01 -2.50013e+01  5.18274e+01             
       H -5.19552e+01 -2.65937e+01  5.21252e+01             
       O -5.86459e+01 -8.57297e+00  5.87700e+01             
       H -5.80677e+01 -8.64530e+00  5.80061e+01             
       H -5.80240e+01 -8.98207e+00  5.94249e+01             
       O -4.83688e+01  9.01864e+00  7.02358e+01             
       H -4.77477e+01  8.43730e+00  6.97965e+01             
       H -4.78712e+01  9.37751e+00  7.10270e+01             
       O -5.75439e+01 -2.59330e+01  5.81260e+01             
       H -6.23161e+01 -1.92844e+01  3.73622e+01             
       H -5.69005e+01 -2.53016e+01  5.83767e+01             
       O -6.34719e+01 -1.54776e+01  5.25066e+01             
       H -5.56120e+01 -1.66942e+01  3.39819e+01             
       H -6.32175e+01 -1.57700e+01  5.15376e+01             
       O -5.46165e+01 -9.79949e+00  4.42702e+01             
       H -6.27987e+01 -5.15216e+00  4.54701e+01             
       H -5.40379e+01 -9.04774e+00  4.44720e+01             
       O -5.56215e+01 -2.52891e+01  5.45683e+01             
       H -6.76316e+01 -2.56995e+01  6.77963e+01             
       H -4.87175e+01 -6.82353e+00  5.82659e+01             
       O -9.00116e+01 -1.19606e+01  5.81888e+01             
       H -8.93791e+01 -1.13949e+01  5.77263e+01             
       H -8.94463e+01 -1.24909e+01  5.86989e+01             
       O -5.96995e+01 -2.79124e+01  5.01202e+01             
       H -5.94396e+01 -2.73855e+01  5.08975e+01             
       H -5.56197e+01 -1.49625e+01  5.64541e+01             
       O -6.53536e+01 -1.11022e+01  4.23218e+01             
       H -6.48938e+01 -1.19800e+01  4.23842e+01             
       H -7.26436e+01 -2.21182e+01  2.16357e+01             
       O -6.97626e+01 -2.11477e+01  4.39116e+01             
       H -6.94098e+01 -2.02563e+01  4.38506e+01             
       H -6.90374e+01 -2.17808e+01  4.40392e+01             
       O -5.43493e+01 -2.28186e+01  3.86783e+01             
       H -5.40706e+01 -2.34584e+01  3.80557e+01             
       H -5.35097e+01 -2.24976e+01  3.91092e+01             
       O -4.40355e+01 -2.68040e+01  4.98270e+01             
       H -4.30859e+01 -1.39961e+01  4.95863e+01             
       H -4.41307e+01 -2.77176e+01  4.94891e+01             
       O -5.81933e+01 -9.72151e+00  5.02285e+01             
       H -4.53356e+01 -9.92608e+00  4.94493e+01             
       H -5.74517e+01 -9.47510e+00  5.08124e+01             
       O -5.20024e+01  3.00327e+00  5.26642e+01             
       H -5.83998e+01 -3.11508e+01  4.03189e+01             
       H -6.29651e+01  1.91794e+00  4.40285e+01             
       O -6.65183e+01 -1.70202e+01  4.59549e+01             
       H -6.58642e+01 -1.77513e+01  4.57835e+01             
       H -6.59985e+01 -1.64005e+01  4.65066e+01             
       O -6.26287e+01 -3.78378e+00  3.73107e+01             
       H -6.16620e+01 -1.60308e+01  3.75026e+01             
       H -6.26310e+01 -4.72960e+00  3.70195e+01             
       O -6.96974e+01 -2.03149e+01  5.19383e+01             
       H -6.91073e+01 -1.97255e+01  5.14217e+01             
       H -6.91402e+01 -2.06224e+01  5.27606e+01             
       O -5.90321e+01 -1.80485e+01  5.61351e+01             
       H -5.89243e+01 -1.79024e+01  5.52225e+01             
       H -5.80974e+01 -1.81762e+01  5.63776e+01             
       O -7.29784e+01 -2.14259e+01  3.95807e+01             
       H -7.21708e+01 -2.14570e+01  5.15256e+01             
       H -6.72970e+01 -3.72754e+01  4.17287e+01             
       O -5.46948e+01 -2.06377e+01  6.16055e+01             
       H -5.46166e+01 -2.13928e+01  6.22934e+01             
       H -5.37991e+01 -2.06887e+01  6.11549e+01             
       O -6.02065e+01 -1.90668e+01  4.74209e+01             
       H -5.97003e+01 -1.82677e+01  4.76996e+01             
       H -5.95411e+01 -1.97071e+01  4.70730e+01             
       O -7.71853e+01 -1.56580e+01  5.60137e+01             
       H -7.65744e+01 -1.52705e+01  5.53516e+01             
       H -7.66304e+01 -1.60583e+01  5.67536e+01             
       O -5.65078e+01 -2.19277e+01  4.78066e+01             
       H -5.59272e+01 -2.12834e+01  4.82099e+01             
       H -5.59978e+01 -2.26432e+01  4.73650e+01             
       O -7.16924e+01 -1.19830e+01  2.67781e+01             
       H -7.13007e+01 -1.13393e+01  2.61195e+01             
       H -7.09566e+01 -1.26039e+01  2.70356e+01             
       O -6.09812e+01 -2.27514e+01  2.14976e+01             
       H -3.92285e+01 -8.44993e+00  4.03364e+01             
       H -6.05318e+01 -2.34690e+01  2.10624e+01             
       O -6.74286e+01 -1.64891e+01  5.20059e+01             
       H -6.69305e+01 -1.68516e+01  5.28004e+01             
       H -6.69845e+01 -1.55814e+01  5.19504e+01             
       O -6.66001e+01 -1.39857e+01  6.93100e+01             
       H -6.58748e+01 -1.45987e+01  6.91194e+01             
       H -6.61913e+01 -1.31457e+01  6.96730e+01             
192                                                         
# CELL(abcABC):   12.41850    12.41850    12.41850    90.00000    90.00000    90.00000  Step:      200000  Bead:       0 x_centroid{angstrom}  cell{angstrom}   
       O -8.55899e+01 -1.30010e+01  7.36858e+01             
       H -8.49984e+01 -1.37381e+01  7.39496e+01             
       H -8.49238e+01 -1.22819e+01  7.36201e+01             
       O -7.31695e+01 -1.11164e+01  6.48991e+01             
       H -7.63375e+01 -1.85564e+01  5.81725e+01             
       H -7.28228e+01 -1.11756e+01  6.58743e+01             
       O -7.90155e+01 -2.91407e+01  5.49434e+01             
       H -7.84399e+01 -1.63807e+01  5.57236e+01             
       H -7.86198e+01 -3.00575e+01  5.46259e+01             
       O -7.12356e+01 -2.34348e+01  6.12886e+01             
       H -7.08007e+01 -2.35400e+01  6.21689e+01             
       H -7.06583e+01 -2.37047e+01  6.05278e+01             
       O -6.43820e+01 -2.35699e+01  5.49853e+01             
       H -6.35513e+01 -2.31018e+01  5.52203e+01             
       H -6.40514e+01 -2.44694e+01  5.48876e+01             
       O -6.81650e+01 -2.18472e+01  7.01289e+01             
       H -6.73676e+01 -2.23357e+01  6.98063e+01             
       H -6.76934e+01 -2.10257e+01  7.04646e+01             
       O -7.45586e+01 -2.16373e+01  4.30462e+01             
       H -7.36665e+01 -2.12874e+01  4.26757e+01             
       H -6.35145e+01 -1.35997e-01  5.89159e+01             
       O -6.02263e+01 -1.96099e+01  7.13192e+01             
       H -5.96536e+01 -1.99673e+01  7.21034e+01             
       H -5.96051e+01 -3.15662e+01  7.06460e+01             
       O -8.11847e+01 -1.26957e+01  4.84676e+01             
       H -8.01716e+01 -1.27921e+01  4.83724e+01             
       H -8.14511e+01 -1.18594e+01  4.81586e+01             
       O -7.53643e+01 -2.59647e+01  5.45884e+01             
       H -7.44170e+01 -2.59117e+01  5.44970e+01             
       H -7.53311e+01 -2.65097e+01  5.54185e+01             
       O -8.14871e+01 -8.39471e+00  6.15359e+01             
       H -8.09028e+01 -7.55180e+00  6.15078e+01             
       H -8.08224e+01 -9.10228e+00  6.13782e+01             
       O -7.49409e+01 -1.26320e+01  5.10002e+01             
       H -7.43834e+01 -1.28700e+01  5.02163e+01             
       H -6.76367e+01 -1.34263e+01  5.28588e+01             
       O -7.42198e+01 -3.42599e+01  4.60868e+01             
       H -7.35837e+01 -3.34798e+01  4.62185e+01             
       H -6.71310e+01 -3.01903e+01  6.36327e+01             
       O -8.45500e+01 -2.05213e+01  5.51569e+01             
       H -8.36459e+01 -2.07475e+01  5.55148e+01             
       H -8.43092e+01 -2.02469e+01  5.42463e+01             
       O -6.66242e+01 -2.73204e+01  6.52613e+01             
       H -6.57223e+01 -2.71419e+01  6.48566e+01             
       H -6.65018e+01 -2.78815e+01  6.60756e+01             
       O -7.69404e+01 -1.03474e+01  6.29310e+01             
       H -7.64108e+01 -9.60059e+00  6.32787e+01             
       H -7.62625e+01 -1.10537e+01  6.27927e+01             
       O -7.34732e+01 -7.47850e+00  5.03492e+01             
       H -7.29743e+01 -1.97234e+01  5.11728e+01             
       H -7.28737e+01 -7.76996e+00  4.96668e+01             
       O -7.70648e+01 -2.77307e+01  4.89774e+01             
       H -7.61833e+01 -2.78386e+01  4.85501e+01             
       H -7.69171e+01 -2.75463e+01  4.99410e+01             
       O -8.14998e+01 -1.66449e+01  5.53436e+01             
       H -8.04389e+01 -1.66530e+01  5.52823e+01             
       H -8.17020e+01 -1.57118e+01  5.52500e+01             
       O -7.51888e+01  3.46850e+00  5.20517e+01             
       H -6.10123e+01 -1.87757e+01  5.38577e+01             
       H -7.48608e+01  2.57460e+00  5.23054e+01             
       O -6.76181e+01 -1.87402e+01  6.08527e+01             
       H -7.41330e+01 -2.56676e+01  5.98055e+01             
       H -7.96518e+01 -1.93474e+01  6.01587e+01             
       O -7.08777e+01 -3.01736e+01  5.70517e+01             
       H -7.03781e+01 -3.00740e+01  5.61726e+01             
       H -7.01820e+01 -2.99121e+01  5.76872e+01             
       O -7.65524e+01 -2.18224e+01  5.96798e+01             
       H -7.56607e+01 -2.17649e+01  5.91122e+01             
       H -7.62266e+01 -2.15838e+01  6.05956e+01             
       O -7.50586e+01 -4.33953e+01  5.93362e+01             
       H -7.41731e+01 -4.38179e+01  5.92740e+01             
       H -7.48844e+01 -4.24480e+01  7.19763e+01             
       O -7.82707e+01 -6.68697e+00  5.37200e+01             
       H -7.80898e+01 -6.47537e+00  5.27875e+01             
       H -7.73265e+01 -6.94472e+00  5.40837e+01             
       O -6.70815e+01 -2.27234e+01  6.16901e+01             
       H -6.73359e+01 -2.35101e+01  6.21931e+01             
       H -6.61597e+01 -2.25610e+01  6.18681e+01             
       O -7.52000e+01 -2.75908e+01  6.93204e+01             
       H -7.49255e+01 -2.71306e+01  7.02146e+01             
       H -7.44489e+01 -2.81385e+01  6.90391e+01             
       O -9.09027e+01 -2.31427e+01  5.28297e+01             
       H -9.02240e+01 -2.32387e+01  5.35916e+01             
       H -9.03970e+01 -2.29820e+01  5.19493e+01             
       O -7.02531e+01 -4.92396e+00  6.52548e+01             
       H -6.98392e+01 -4.75142e+00  6.61597e+01             
       H -6.94553e+01 -4.85385e+00  6.46481e+01             
       O -7.59439e+01 -1.70989e+01  5.22565e+01             
       H -7.50872e+01 -1.69692e+01  5.16961e+01             
       H -7.56034e+01 -1.72160e+01  4.07243e+01             
       O -6.95143e+01 -1.43349e+01  3.81570e+01             
       H -6.87608e+01 -1.43870e+01  3.87703e+01             
       H -8.15759e+01 -1.36979e+01  3.74758e+01             
       O -6.13641e+01 -1.68880e+01  3.82778e+01             
       H -6.08503e+01 -1.76021e+01  3.78664e+01             
       H -6.05695e+01 -1.62497e+01  3.85114e+01             
       O -7.29785e+01 -2.88637e+01  4.35893e+01             
       H -7.22081e+01 -2.93451e+01  4.39807e+01             
       H -7.26311e+01 -2.81962e+01  5.53259e+01             
       O -6.96207e+01 -2.10052e+01  3.94328e+01             
       H -7.79201e+01 -1.28082e+01  4.75515e+01             
       H -6.93024e+01 -2.09894e+01  3.85577e+01             
       O -7.16712e+01 -2.78975e+01  6.39851e+01             
       H -7.12426e+01 -2.85420e+01  6.46968e+01             
       H -7.09460e+01 -2.75540e+01  6.35066e+01             
       O -6.18522e+01 -1.61914e+01  4.80793e+01             
       H -6.08766e+01 -1.61446e+01  4.79862e+01             
       H -6.19227e+01 -1.66587e+01  4.89356e+01             
       O -6.53083e+01 -2.85718e+01  5.71122e+01             
       H -6.44004e+01 -2.81568e+01  5.70509e+01             
       H -6.51150e+01 -2.95197e+01  5.73171e+01             
       O -6.99637e+01 -1.31198e+01  6.74498e+01             
       H -6.94335e+01 -1.28841e+01  6.66696e+01             
       H -6.94553e+01 -1.32109e+01  6.83382e+01             
       O -5.93532e+01  5.25667e+00  7.74372e+01             
       H -5.86532e+01  4.65105e+00  7.70194e+01             
       H -5.88688e+01  6.06413e+00  7.76053e+01             
       O -6.79099e+01 -2.96705e+01  6.38276e+01             
       H -7.44953e+01 -2.14000e+01  4.39943e+01             
       H -6.74768e+01 -2.88549e+01  6.42342e+01             
       O -7.70641e+01 -1.85212e+01  5.75602e+01             
       H -6.87997e+01 -2.09591e+01  3.99939e+01             
       H -7.66580e+01 -1.87937e+01  5.66707e+01             
       O -6.83191e+01 -1.27324e+01  5.28804e+01             
       H -7.44679e+01 -8.62664e+00  5.14374e+01             
       H -6.77311e+01 -1.18486e+01  5.29184e+01             
       O -6.93031e+01 -2.91740e+01  5.91985e+01             
       H -8.11258e+01 -2.98568e+01  7.20096e+01             
       H -5.99935e+01 -1.12683e+01  6.43240e+01             
       O -1.01401e+02 -1.45256e+01  6.40513e+01             
       H -1.00965e+02 -1.53812e+01  6.43511e+01             
       H -1.00660e+02 -1.38909e+01  6.40654e+01             
       O -7.40278e+01 -3.05153e+01  5.41190e+01             
       H -7.34447e+01 -2.99518e+01  5.47173e+01             
       H -6.68381e+01 -1.84813e+01  6.14519e+01             
       O -7.86419e+01 -1.33229e+01  4.81148e+01             
       H -7.80747e+01 -1.40251e+01  4.84328e+01             
       H -8.42711e+01 -2.63702e+01  2.97919e+01             
       O -8.27989e+01 -2.35271e+01  5.14309e+01             
       H -8.25709e+01 -2.26638e+01  5.19429e+01             
       H -8.20825e+01 -2.41267e+01  5.16708e+01             
       O -6.73966e+01 -2.72697e+01  4.62381e+01             
       H -6.65656e+01 -2.77455e+01  4.59049e+01             
       H -6.71443e+01 -2.67870e+01  4.70018e+01             
       O -5.72201e+01 -3.40454e+01  5.54208e+01             
       H -5.65567e+01 -2.12746e+01  5.48042e+01             
       H -5.66934e+01 -3.42000e+01  5.63175e+01             
       O -7.26199e+01 -1.13427e+01  5.76878e+01             
       H -6.01453e+01 -1.13123e+01  5.66417e+01             
       H -7.16611e+01 -1.12951e+01  5.80038e+01             
       O -6.44679e+01  2.74302e-01  5.89938e+01             
       H -7.35825e+01 -3.50403e+01  4.58609e+01             
       H -7.43685e+01 -1.35426e-02  5.17946e+01             
       O -7.99712e+01 -2.10025e+01  5.33571e+01             
       H -7.93829e+01 -2.17774e+01  5.33107e+01             
       H -7.92666e+01 -2.02116e+01  5.35350e+01             
       O -7.61043e+01 -6.99676e+00  4.27259e+01             
       H -7.51934e+01 -1.89712e+01  4.23628e+01             
       H -7.56797e+01 -7.92091e+00  4.27255e+01             
       O -8.24156e+01 -2.37639e+01  5.88040e+01             
       H -8.19197e+01 -2.29545e+01  5.84990e+01             
       H -8.18120e+01 -2.44070e+01  5.83808e+01             
       O -7.16380e+01 -2.06643e+01  6.09739e+01             
       H -7.17820e+01 -2.15935e+01  6.10034e+01             
       H -7.06055e+01 -2.06619e+01  6.11362e+01             
       O -8.68278e+01 -2.55273e+01  4.64585e+01             
       H -8.63063e+01 -2.47811e+01  5.85040e+01             
       H -8.11146e+01 -4.08407e+01  4.65869e+01             
       O -6.61325e+01 -2.34181e+01  6.94014e+01             
       H -6.55258e+01 -2.37021e+01  7.01278e+01             
       H -6.54877e+01 -2.34965e+01  6.86968e+01             
       O -7.18965e+01 -2.37419e+01  5.50607e+01             
       H -7.11540e+01 -2.43964e+01  5.51090e+01             
       H -7.14370e+01 -2.28617e+01  5.51147e+01             
       O -8.84850e+01 -1.94133e+01  6.16714e+01             
       H -8.81456e+01 -1.90426e+01  6.08100e+01             
       H -8.77299e+01 -1.95413e+01  6.23196e+01             
       O -6.84560e+01 -2.53220e+01  5.71498e+01             
       H -6.77086e+01 -2.46481e+01  5.70413e+01             
       H -6.81703e+01 -2.61263e+01  5.77091e+01             
       O -8.37108e+01 -1.57715e+01  3.60704e+01             
       H -8.32099e+01 -1.61978e+01  3.53350e+01             
       H -8.30673e+01 -1.59108e+01  3.67866e+01             
       O -7.26377e+01 -2.68562e+01  2.95293e+01             
       H -5.18103e+01 -1.12127e+01  4.68898e+01             
       H -7.24378e+01 -2.72049e+01  2.86259e+01             
       O -7.86886e+01 -2.02791e+01  5.86340e+01             
       H -7.79795e+01 -2.08579e+01  5.90319e+01             
       H -7.81646e+01 -1.97116e+01  5.80304e+01             
       O -7.78301e+01 -1.85612e+01  7.57080e+01             
       H -7.72449e+01 -1.89219e+01  7.49725e+01             
       H -7.71281e+01 -1.79114e+01  7.61415e+01             
