192                                                         
# CELL(abcABC):   12.41850    12.41850    12.41850    90.00000    90.00000    90.00000  Step:           0  Bead:       0 x_centroid{angstrom}  cell{angstrom}   
       O -7.41854e+01 -9.93188e+00  6.79459e+01             
       H -7.42791e+01 -1.08233e+01  6.76842e+01             
       H -7.33407e+01 -9.57096e+00  6.76090e+01             
       O -6.23392e+01 -6.36184e+00  5.78268e+01             
       H -6.28277e+01 -1.65978e+01  5.34940e+01             
       H -6.15331e+01 -5.85472e+00  5.76981e+01             
       O -6.68871e+01 -2.72331e+01  5.08397e+01             
       H -6.62276e+01 -1.43546e+01  5.15094e+01             
       H -6.62092e+01 -2.74287e+01  5.01510e+01             
       O -5.95382e+01 -2.10158e+01  5.46634e+01             
       H -5.86018e+01 -2.10392e+01  5.49848e+01             
       H -5.96040e+01 -2.02003e+01  5.41488e+01             
       O -5.23680e+01 -2.01334e+01  4.77629e+01             
       H -5.16267e+01 -1.95866e+01  4.80003e+01             
       H -5.19920e+01 -2.10035e+01  4.79646e+01             
       O -5.63334e+01 -1.88236e+01  6.25072e+01             
       H -5.56831e+01 -1.93842e+01  6.20517e+01             
       H -5.58855e+01 -1.81484e+01  6.30260e+01             
       O -6.24970e+01 -1.87832e+01  3.64439e+01             
       H -6.18020e+01 -1.87421e+01  3.57864e+01             
       H -5.19522e+01  1.32705e+00  5.20455e+01             
       O -4.67647e+01 -1.70057e+01  6.69788e+01             
       H -4.65947e+01 -1.72157e+01  6.79046e+01             
       H -4.59995e+01 -2.88887e+01  6.66797e+01             
       O -6.91731e+01 -9.58128e+00  4.05302e+01             
       H -6.89177e+01 -8.94267e+00  4.11921e+01             
       H -6.84411e+01 -9.95155e+00  4.00086e+01             
       O -6.36156e+01 -2.26379e+01  4.90869e+01             
       H -6.33132e+01 -2.33962e+01  4.85865e+01             
       H -6.27704e+01 -2.21369e+01  4.94409e+01             
       O -6.75701e+01 -6.36019e+00  5.60345e+01             
       H -6.70929e+01 -6.94468e+00  5.66308e+01             
       H -6.68991e+01 -6.19599e+00  5.53671e+01             
       O -6.49479e+01 -1.08214e+01  4.60309e+01             
       H -6.48515e+01 -9.99565e+00  4.55431e+01             
       H -5.43730e+01 -1.06807e+01  4.32782e+01             
       O -5.99443e+01 -3.15328e+01  4.06274e+01             
       H -5.95196e+01 -3.07083e+01  4.09693e+01             
       H -5.76299e+01 -2.66610e+01  5.97147e+01             
       O -7.05241e+01 -1.71675e+01  4.90472e+01             
       H -6.99191e+01 -1.77885e+01  4.94472e+01             
       H -7.00434e+01 -1.67072e+01  4.82872e+01             
       O -5.70692e+01 -2.37421e+01  5.79517e+01             
       H -5.62830e+01 -2.35919e+01  5.74387e+01             
       H -5.69693e+01 -2.45178e+01  5.85400e+01             
       O -6.35308e+01 -7.64710e+00  5.55502e+01             
       H -6.29572e+01 -7.14067e+00  5.62090e+01             
       H -6.29963e+01 -8.43525e+00  5.53820e+01             
       O -6.20746e+01 -7.62296e+00  3.90014e+01             
       H -6.17123e+01 -1.94076e+01  3.96284e+01             
       H -6.14686e+01 -8.44741e+00  3.92319e+01             
       O -6.34028e+01 -2.55033e+01  4.28416e+01             
       H -6.26424e+01 -2.54394e+01  4.22506e+01             
       H -6.30904e+01 -2.52464e+01  4.37153e+01             
       O -7.04829e+01 -1.16859e+01  5.10077e+01             
       H -6.97647e+01 -1.20192e+01  5.04931e+01             
       H -7.01292e+01 -1.12776e+01  5.18034e+01             
       O -6.39527e+01  8.58633e+00  4.55977e+01             
       H -4.69468e+01 -1.64092e+01  4.96649e+01             
       H -6.31792e+01  9.20554e+00  4.56905e+01             
       O -5.63458e+01 -1.67100e+01  5.71410e+01             
       H -6.00724e+01 -2.17744e+01  5.30037e+01             
       H -6.82187e+01 -1.74055e+01  5.66663e+01             
       O -5.71485e+01 -2.80556e+01  5.31356e+01             
       H -5.64651e+01 -2.85133e+01  5.26591e+01             
       H -5.66744e+01 -2.72800e+01  5.35110e+01             
       O -6.43512e+01 -2.03506e+01  5.28712e+01             
       H -6.43423e+01 -2.00977e+01  5.38265e+01             
       H -6.34250e+01 -2.01634e+01  5.26228e+01             
       O -6.17962e+01 -4.08162e+01  5.46310e+01             
       H -6.09251e+01 -4.12852e+01  5.45746e+01             
       H -6.15183e+01 -3.98805e+01  6.71635e+01             
       O -6.44664e+01 -2.16457e+00  4.96030e+01             
       H -6.41018e+01 -1.29303e+00  4.93818e+01             
       H -6.37127e+01 -2.79209e+00  4.97970e+01             
       O -5.34272e+01 -1.80813e+01  5.34349e+01             
       H -5.25554e+01 -1.75471e+01  5.34661e+01             
       H -5.30660e+01 -1.87317e+01  5.28084e+01             
       O -6.31052e+01 -2.46134e+01  6.43192e+01             
       H -6.22915e+01 -2.45586e+01  6.48459e+01             
       H -6.26913e+01 -2.46082e+01  6.34457e+01             
       O -7.80307e+01 -2.02974e+01  4.50720e+01             
       H -7.77133e+01 -2.01489e+01  4.59262e+01             
       H -7.73162e+01 -2.01980e+01  4.44136e+01             
       O -6.04775e+01 -1.56301e+00  6.05881e+01             
       H -6.03799e+01 -2.22325e+00  6.13218e+01             
       H -5.95607e+01 -1.28744e+00  6.03709e+01             
       O -6.30096e+01 -1.26891e+01  4.76060e+01             
       H -6.27642e+01 -1.26853e+01  4.66553e+01             
       H -6.21164e+01 -1.29556e+01  3.55152e+01             
       O -5.84587e+01 -1.18272e+01  2.94878e+01             
       H -5.75541e+01 -1.21977e+01  2.95730e+01             
       H -7.07674e+01 -1.10789e+01  2.88931e+01             
       O -4.96588e+01 -1.25010e+01  3.25364e+01             
       H -4.94434e+01 -1.34255e+01  3.27384e+01             
       H -4.88054e+01 -1.20269e+01  3.25638e+01             
       O -6.09753e+01 -2.41200e+01  3.76472e+01             
       H -6.07021e+01 -2.48648e+01  3.71178e+01             
       H -6.04354e+01 -2.33728e+01  4.97723e+01             
       O -5.63807e+01 -1.59469e+01  3.47730e+01             
       H -6.57371e+01 -1.11511e+01  4.15053e+01             
       H -5.63672e+01 -1.64949e+01  3.39407e+01             
       O -5.98396e+01 -2.37795e+01  5.73372e+01             
       H -5.89501e+01 -2.38354e+01  5.77533e+01             
       H -5.95805e+01 -2.37644e+01  5.63897e+01             
       O -4.85517e+01 -1.29566e+01  4.12136e+01             
       H -4.80254e+01 -1.33975e+01  4.05421e+01             
       H -4.79602e+01 -1.23336e+01  4.16072e+01             
       O -5.29604e+01 -2.63324e+01  5.27956e+01             
       H -5.23029e+01 -2.56989e+01  5.24855e+01             
       H -5.25039e+01 -2.70148e+01  5.32338e+01             
       O -5.89577e+01 -8.09638e+00  5.84068e+01             
       H -5.84599e+01 -8.17236e+00  5.76161e+01             
       H -5.84352e+01 -8.45087e+00  5.91221e+01             
       O -4.87630e+01  9.71370e+00  7.03343e+01             
       H -4.80612e+01  9.22816e+00  6.98604e+01             
       H -4.83789e+01  1.00396e+01  7.11374e+01             
       O -5.79937e+01 -2.57362e+01  5.98752e+01             
       H -6.21499e+01 -1.92358e+01  3.72762e+01             
       H -5.74444e+01 -2.56579e+01  6.07233e+01             
       O -6.36059e+01 -1.66816e+01  5.29604e+01             
       H -5.54618e+01 -1.58666e+01  3.50164e+01             
       H -6.33901e+01 -1.66571e+01  5.20441e+01             
       O -5.48820e+01 -1.00477e+01  4.38287e+01             
       H -6.35883e+01 -4.72035e+00  4.57203e+01             
       H -5.41422e+01 -9.46282e+00  4.41827e+01             
       O -5.60687e+01 -2.55270e+01  5.43510e+01             
       H -6.82710e+01 -2.58094e+01  6.77364e+01             
       H -4.96885e+01 -7.26481e+00  5.80389e+01             
       O -9.17447e+01 -1.25029e+01  5.94184e+01             
       H -9.10446e+01 -1.18847e+01  5.90458e+01             
       H -9.13189e+01 -1.33506e+01  5.95886e+01             
       O -6.00718e+01 -2.83257e+01  5.00790e+01             
       H -5.99114e+01 -2.77355e+01  5.08207e+01             
       H -5.59110e+01 -1.58223e+01  5.70132e+01             
       O -6.60964e+01 -1.15798e+01  4.23107e+01             
       H -6.53378e+01 -1.20754e+01  4.27075e+01             
       H -7.29766e+01 -2.11582e+01  2.12481e+01             
       O -6.93558e+01 -2.09164e+01  4.31654e+01             
       H -6.89631e+01 -2.00192e+01  4.31895e+01             
       H -6.85356e+01 -2.15390e+01  4.33533e+01             
       O -5.49262e+01 -2.27708e+01  3.85720e+01             
       H -5.51772e+01 -2.34750e+01  3.79374e+01             
       H -5.39150e+01 -2.29339e+01  3.88475e+01             
       O -4.35016e+01 -2.53406e+01  4.95690e+01             
       H -4.30036e+01 -1.36040e+01  5.01551e+01             
       H -4.27880e+01 -2.51067e+01  4.89377e+01             
       O -5.98189e+01 -9.26860e+00  4.92213e+01             
       H -4.66814e+01 -9.45818e+00  4.86151e+01             
       H -5.94592e+01 -8.67707e+00  4.98589e+01             
       O -5.26606e+01  1.94543e+00  5.23753e+01             
       H -5.94353e+01 -3.18477e+01  3.98735e+01             
       H -6.40367e+01  1.24751e+00  4.60782e+01             
       O -6.60496e+01 -1.53389e+01  4.72855e+01             
       H -6.52955e+01 -1.56915e+01  4.67359e+01             
       H -6.55605e+01 -1.51580e+01  4.81036e+01             
       O -6.26851e+01 -4.03920e+00  3.79657e+01             
       H -6.17014e+01 -1.62751e+01  3.79511e+01             
       H -6.26829e+01 -4.83158e+00  3.73268e+01             
       O -7.06223e+01 -2.05396e+01  5.12540e+01             
       H -6.99796e+01 -1.99053e+01  5.08973e+01             
       H -7.01160e+01 -2.10605e+01  5.19688e+01             
       O -5.91727e+01 -1.68720e+01  5.73637e+01             
       H -5.81927e+01 -1.69415e+01  5.72780e+01             
       H -5.94133e+01 -1.73057e+01  5.82131e+01             
       O -7.31822e+01 -2.22458e+01  4.00318e+01             
       H -7.27260e+01 -2.28223e+01  5.18893e+01             
       H -6.76155e+01 -3.78652e+01  4.14813e+01             
       O -5.48879e+01 -2.05959e+01  6.12125e+01             
       H -5.46548e+01 -2.13441e+01  6.18075e+01             
       H -5.39738e+01 -2.02922e+01  6.09674e+01             
       O -5.99117e+01 -1.83975e+01  4.71156e+01             
       H -5.92393e+01 -1.81036e+01  4.78028e+01             
       H -5.95394e+01 -1.91802e+01  4.66455e+01             
       O -7.78659e+01 -1.53685e+01  5.56922e+01             
       H -7.72140e+01 -1.46793e+01  5.55310e+01             
       H -7.72251e+01 -1.58115e+01  5.62729e+01             
       O -5.73735e+01 -2.19243e+01  4.77616e+01             
       H -5.66429e+01 -2.13793e+01  4.81324e+01             
       H -5.70510e+01 -2.24135e+01  4.69951e+01             
       O -7.17558e+01 -1.39225e+01  2.68982e+01             
       H -7.13333e+01 -1.32184e+01  2.64316e+01             
       H -7.10079e+01 -1.43954e+01  2.73719e+01             
       O -6.14772e+01 -2.13448e+01  2.09494e+01             
       H -3.98037e+01 -9.56238e+00  4.00218e+01             
       H -6.13225e+01 -2.17537e+01  2.01246e+01             
       O -6.78795e+01 -1.70478e+01  5.18046e+01             
       H -6.71980e+01 -1.73821e+01  5.24302e+01             
       H -6.75303e+01 -1.63196e+01  5.12476e+01             
       O -6.76594e+01 -1.41047e+01  6.94516e+01             
       H -6.68173e+01 -1.43958e+01  6.90951e+01             
       H -6.74676e+01 -1.36967e+01  7.02644e+01             
192                                                         
# CELL(abcABC):   12.41850    12.41850    12.41850    90.00000    90.00000    90.00000  Step:      200000  Bead:       0 x_centroid{angstrom}  cell{angstrom}   
       O -9.20005e+01 -1.62042e+01  7.40040e+01             
       H -9.14143e+01 -1.69710e+01  7.42553e+01             
       H -9.13631e+01 -1.54951e+01  7.37403e+01             
       O -7.91176e+01 -1.27375e+01  6.58134e+01             
       H -8.01643e+01 -2.10028e+01  6.29120e+01             
       H -7.84402e+01 -1.34632e+01  6.56229e+01             
       O -8.41423e+01 -3.16485e+01  6.06351e+01             
       H -8.36516e+01 -1.91390e+01  6.15015e+01             
       H -8.34275e+01 -3.19121e+01  5.99922e+01             
       O -7.70397e+01 -2.69380e+01  6.60186e+01             
       H -7.65238e+01 -2.63627e+01  6.66228e+01             
       H -7.64623e+01 -2.75696e+01  6.55505e+01             
       O -6.95638e+01 -2.44389e+01  5.75957e+01             
       H -6.86817e+01 -2.41295e+01  5.80230e+01             
       H -6.91456e+01 -2.49815e+01  5.69171e+01             
       O -7.39341e+01 -2.32939e+01  7.17262e+01             
       H -7.32088e+01 -2.38776e+01  7.14101e+01             
       H -7.35383e+01 -2.26633e+01  7.23612e+01             
       O -7.94812e+01 -2.40396e+01  4.58882e+01             
       H -7.87594e+01 -2.39819e+01  4.52597e+01             
       H -7.01054e+01 -2.20553e+00  6.05754e+01             
       O -6.39978e+01 -2.07860e+01  7.73594e+01             
       H -6.30184e+01 -2.06429e+01  7.78041e+01             
       H -6.37814e+01 -3.31355e+01  7.63683e+01             
       O -8.77060e+01 -1.43198e+01  5.01222e+01             
       H -8.78775e+01 -1.33482e+01  5.02399e+01             
       H -8.69778e+01 -1.43976e+01  4.94443e+01             
       O -8.10620e+01 -3.04108e+01  5.74936e+01             
       H -8.06631e+01 -2.97598e+01  5.80956e+01             
       H -8.03299e+01 -3.09128e+01  5.70270e+01             
       O -8.56165e+01 -1.07528e+01  6.39744e+01             
       H -8.55398e+01 -1.15214e+01  6.45980e+01             
       H -8.47244e+01 -1.04809e+01  6.36865e+01             
       O -8.24879e+01 -1.49874e+01  5.49540e+01             
       H -8.19796e+01 -1.57546e+01  5.45335e+01             
       H -7.20268e+01 -1.54926e+01  5.24242e+01             
       O -7.75135e+01 -3.48613e+01  4.98418e+01             
       H -7.66907e+01 -3.53035e+01  4.99107e+01             
       H -7.49378e+01 -3.15304e+01  6.85230e+01             
       O -8.84942e+01 -2.21809e+01  5.82424e+01             
       H -8.77462e+01 -2.27849e+01  5.85976e+01             
       H -8.78548e+01 -2.16040e+01  5.77257e+01             
       O -7.34669e+01 -2.88927e+01  6.78869e+01             
       H -7.31870e+01 -2.85961e+01  6.69845e+01             
       H -7.26476e+01 -2.93255e+01  6.82450e+01             
       O -8.13544e+01 -1.33936e+01  6.42238e+01             
       H -8.04564e+01 -1.33432e+01  6.44983e+01             
       H -8.14674e+01 -1.43917e+01  6.39772e+01             
       O -7.92523e+01 -1.19319e+01  4.89967e+01             
       H -7.86279e+01 -2.36436e+01  4.93423e+01             
       H -7.87833e+01 -1.27937e+01  4.90178e+01             
       O -8.16566e+01 -2.85872e+01  5.11442e+01             
       H -8.09944e+01 -2.85080e+01  5.04000e+01             
       H -8.12280e+01 -2.88905e+01  5.20436e+01             
       O -8.74641e+01 -1.72387e+01  5.86105e+01             
       H -8.64895e+01 -1.70716e+01  5.87685e+01             
       H -8.74876e+01 -1.76456e+01  5.77082e+01             
       O -8.27625e+01  2.42621e+00  5.58454e+01             
       H -6.46648e+01 -2.11302e+01  5.89042e+01             
       H -8.18907e+01  2.78289e+00  5.56243e+01             
       O -7.40877e+01 -2.10097e+01  6.59717e+01             
       H -7.69293e+01 -2.70221e+01  6.17306e+01             
       H -8.63728e+01 -2.18797e+01  6.55696e+01             
       O -7.50488e+01 -3.26787e+01  6.24990e+01             
       H -7.42503e+01 -3.32082e+01  6.21735e+01             
       H -7.46390e+01 -3.19051e+01  6.28541e+01             
       O -8.18063e+01 -2.45738e+01  6.20656e+01             
       H -8.16970e+01 -2.50235e+01  6.29432e+01             
       H -8.08264e+01 -2.43907e+01  6.17294e+01             
       O -7.89296e+01 -4.47945e+01  6.36962e+01             
       H -7.83326e+01 -4.48963e+01  6.44225e+01             
       H -7.84123e+01 -4.42554e+01  7.54885e+01             
       O -8.23075e+01 -7.67189e+00  5.87646e+01             
       H -8.18377e+01 -6.84395e+00  5.83684e+01             
       H -8.15303e+01 -8.28158e+00  5.90298e+01             
       O -7.10839e+01 -2.26071e+01  6.24525e+01             
       H -7.03247e+01 -2.20304e+01  6.27314e+01             
       H -7.04758e+01 -2.33986e+01  6.21747e+01             
       O -8.10627e+01 -2.82146e+01  7.15963e+01             
       H -8.05141e+01 -2.84827e+01  7.23912e+01             
       H -8.03819e+01 -2.77885e+01  7.10160e+01             
       O -9.58161e+01 -2.39211e+01  5.36728e+01             
       H -9.56176e+01 -2.34450e+01  5.45545e+01             
       H -9.50971e+01 -2.44118e+01  5.32861e+01             
       O -7.74128e+01 -6.35528e+00  6.68916e+01             
       H -7.65593e+01 -6.10439e+00  6.74157e+01             
       H -7.70950e+01 -6.98297e+00  6.62734e+01             
       O -7.90452e+01 -1.98443e+01  5.64278e+01             
       H -7.83924e+01 -1.93567e+01  5.58999e+01             
       H -7.85535e+01 -2.01528e+01  4.48706e+01             
       O -7.60441e+01 -1.62946e+01  3.95354e+01             
       H -7.52422e+01 -1.68918e+01  3.96785e+01             
       H -8.80828e+01 -1.55229e+01  3.90946e+01             
       O -6.84749e+01 -1.67417e+01  4.12368e+01             
       H -6.84394e+01 -1.77351e+01  4.12690e+01             
       H -6.74978e+01 -1.64510e+01  4.15627e+01             
       O -7.91955e+01 -2.76474e+01  4.48477e+01             
       H -7.89916e+01 -2.80983e+01  4.40394e+01             
       H -7.83161e+01 -2.73303e+01  5.76883e+01             
       O -7.44750e+01 -2.07327e+01  4.39833e+01             
       H -8.45568e+01 -1.53911e+01  4.99728e+01             
       H -7.44909e+01 -2.10831e+01  4.30762e+01             
       O -7.86611e+01 -2.85570e+01  6.71143e+01             
       H -7.80961e+01 -2.78173e+01  6.67591e+01             
       H -7.81089e+01 -2.93779e+01  6.69949e+01             
       O -6.53914e+01 -1.79401e+01  4.99311e+01             
       H -6.48125e+01 -1.82524e+01  4.91146e+01             
       H -6.48503e+01 -1.75458e+01  5.06386e+01             
       O -7.06984e+01 -3.16451e+01  6.30347e+01             
       H -7.02830e+01 -3.08839e+01  6.34931e+01             
       H -6.98728e+01 -3.21815e+01  6.28397e+01             
       O -7.55510e+01 -1.27698e+01  6.75648e+01             
       H -7.47932e+01 -1.24329e+01  6.70832e+01             
       H -7.51434e+01 -1.34098e+01  6.82018e+01             
       O -6.79583e+01  3.21991e+00  7.97875e+01             
       H -6.71936e+01  2.66452e+00  7.94670e+01             
       H -6.74214e+01  3.87450e+00  8.03096e+01             
       O -7.54256e+01 -3.07466e+01  6.83565e+01             
       H -7.90308e+01 -2.41030e+01  4.67344e+01             
       H -7.48077e+01 -3.00567e+01  6.80625e+01             
       O -8.10314e+01 -2.10263e+01  6.24046e+01             
       H -7.34980e+01 -2.06260e+01  4.42014e+01             
       H -8.06762e+01 -2.12848e+01  6.14876e+01             
       O -7.22134e+01 -1.53470e+01  5.33383e+01             
       H -8.25592e+01 -1.05435e+01  5.66370e+01             
       H -7.12792e+01 -1.52745e+01  5.38102e+01             
       O -7.37690e+01 -3.03462e+01  6.40543e+01             
       H -8.55817e+01 -3.07723e+01  7.71031e+01             
       H -6.64439e+01 -1.18600e+01  6.55315e+01             
       O -1.08270e+02 -1.66948e+01  6.90712e+01             
       H -1.08016e+02 -1.59215e+01  6.86080e+01             
       H -1.07494e+02 -1.70417e+01  6.94567e+01             
       O -7.78942e+01 -3.29472e+01  5.89225e+01             
       H -7.73866e+01 -3.21978e+01  5.93512e+01             
       H -7.31915e+01 -2.05724e+01  6.59039e+01             
       O -8.43775e+01 -1.58609e+01  5.07686e+01             
       H -8.34039e+01 -1.59159e+01  5.08330e+01             
       H -9.24532e+01 -2.61794e+01  3.13144e+01             
       O -8.56150e+01 -2.49551e+01  5.34528e+01             
       H -8.46806e+01 -2.44814e+01  5.35410e+01             
       H -8.54605e+01 -2.59275e+01  5.34932e+01             
       O -7.32016e+01 -2.74218e+01  4.83679e+01             
       H -7.31347e+01 -2.80201e+01  4.76189e+01             
       H -7.22518e+01 -2.70967e+01  4.85191e+01             
       O -6.01401e+01 -2.95197e+01  5.91700e+01             
       H -5.97196e+01 -1.77488e+01  5.97507e+01             
       H -5.96219e+01 -2.92409e+01  5.83750e+01             
       O -7.64267e+01 -1.49582e+01  5.83647e+01             
       H -6.37029e+01 -1.58214e+01  5.87609e+01             
       H -7.55861e+01 -1.45067e+01  5.80356e+01             
       O -7.08016e+01 -1.62229e+00  6.09391e+01             
       H -7.72913e+01 -3.42300e+01  4.91450e+01             
       H -8.18245e+01 -1.81692e+00  5.51134e+01             
       O -8.43526e+01 -2.03425e+01  5.67511e+01             
       H -8.37437e+01 -2.10329e+01  5.63392e+01             
       H -8.38994e+01 -2.00934e+01  5.76173e+01             
       O -8.04107e+01 -9.22962e+00  4.72273e+01             
       H -7.95469e+01 -2.11213e+01  4.70239e+01             
       H -8.01715e+01 -1.01005e+01  4.67389e+01             
       O -8.74429e+01 -2.38373e+01  6.21643e+01             
       H -8.70053e+01 -2.38093e+01  6.12599e+01             
       H -8.67328e+01 -2.36075e+01  6.28525e+01             
       O -7.80817e+01 -2.24552e+01  6.61915e+01             
       H -7.75140e+01 -2.18490e+01  6.56707e+01             
       H -7.75467e+01 -2.26975e+01  6.70086e+01             
       O -8.99990e+01 -2.68419e+01  4.85769e+01             
       H -8.95800e+01 -2.69029e+01  6.01529e+01             
       H -8.55824e+01 -4.21997e+01  5.10890e+01             
       O -7.21745e+01 -2.51745e+01  7.09110e+01             
       H -7.19257e+01 -2.56506e+01  7.17308e+01             
       H -7.12866e+01 -2.49269e+01  7.05787e+01             
       O -7.74659e+01 -2.37664e+01  5.65343e+01             
       H -7.67871e+01 -2.32716e+01  5.69889e+01             
       H -7.69113e+01 -2.45000e+01  5.60926e+01             
       O -9.40112e+01 -1.98473e+01  6.55667e+01             
       H -9.35497e+01 -2.00122e+01  6.47466e+01             
       H -9.35159e+01 -2.03985e+01  6.62052e+01             
       O -7.42516e+01 -2.65159e+01  5.69472e+01             
       H -7.35744e+01 -2.60805e+01  5.75172e+01             
       H -7.39205e+01 -2.73763e+01  5.66479e+01             
       O -8.87714e+01 -1.89013e+01  3.56410e+01             
       H -8.81105e+01 -1.83386e+01  3.51300e+01             
       H -8.81747e+01 -1.95137e+01  3.62560e+01             
       O -8.05839e+01 -2.56415e+01  3.06943e+01             
       H -5.77664e+01 -1.32827e+01  4.88060e+01             
       H -8.00485e+01 -2.53151e+01  2.98938e+01             
       O -8.54415e+01 -2.15040e+01  6.10938e+01             
       H -8.46516e+01 -2.19003e+01  6.15025e+01             
       H -8.50264e+01 -2.06368e+01  6.08695e+01             
       O -8.43309e+01 -1.94431e+01  7.87056e+01             
       H -8.34468e+01 -1.97622e+01  7.83788e+01             
       H -8.42779e+01 -1.94712e+01  7.96865e+01             
