192                                                         
# CELL(abcABC):   12.41850    12.41850    12.41850    90.00000    90.00000    90.00000  Step:           0  Bead:       0 x_centroid{angstrom}  cell{angstrom}   
       O -7.33211e+01 -1.03387e+01  6.71467e+01             
       H -7.26229e+01 -1.08218e+01  6.75836e+01             
       H -7.30070e+01 -9.47108e+00  6.70392e+01             
       O -6.04960e+01 -6.63960e+00  5.73927e+01             
       H -6.23282e+01 -1.65012e+01  5.22235e+01             
       H -5.97162e+01 -6.06523e+00  5.73770e+01             
       O -6.58098e+01 -2.60508e+01  4.95918e+01             
       H -6.54595e+01 -1.39195e+01  5.04357e+01             
       H -6.50076e+01 -2.61956e+01  4.90323e+01             
       O -5.93449e+01 -2.05790e+01  5.46849e+01             
       H -5.84232e+01 -2.08450e+01  5.48161e+01             
       H -5.96099e+01 -1.99278e+01  5.53875e+01             
       O -5.09972e+01 -2.01222e+01  4.78952e+01             
       H -5.03373e+01 -1.94679e+01  4.81296e+01             
       H -5.05269e+01 -2.09948e+01  4.78539e+01             
       O -5.50640e+01 -1.85074e+01  6.24005e+01             
       H -5.43444e+01 -1.90964e+01  6.21460e+01             
       H -5.47205e+01 -1.77244e+01  6.27784e+01             
       O -6.08299e+01 -1.93489e+01  3.61410e+01             
       H -5.99506e+01 -1.93317e+01  3.56818e+01             
       H -5.05900e+01  3.06131e+00  5.05186e+01             
       O -4.51091e+01 -1.49379e+01  6.64873e+01             
       H -4.43055e+01 -1.51460e+01  6.70676e+01             
       H -4.47654e+01 -2.68843e+01  6.57257e+01             
       O -6.73054e+01 -7.90982e+00  4.03767e+01             
       H -6.71268e+01 -8.79701e+00  4.05957e+01             
       H -6.65774e+01 -7.67803e+00  3.97584e+01             
       O -6.31990e+01 -2.32317e+01  4.83072e+01             
       H -6.22585e+01 -2.34340e+01  4.84882e+01             
       H -6.33604e+01 -2.37897e+01  4.75519e+01             
       O -6.81959e+01 -6.11322e+00  5.59873e+01             
       H -6.77192e+01 -6.57299e+00  5.67172e+01             
       H -6.75459e+01 -5.58830e+00  5.54793e+01             
       O -6.23443e+01 -9.70986e+00  4.47390e+01             
       H -6.14956e+01 -9.79258e+00  4.52296e+01             
       H -5.30323e+01 -1.02952e+01  4.28479e+01             
       O -5.90077e+01 -2.96924e+01  4.09672e+01             
       H -5.83873e+01 -2.88698e+01  4.10830e+01             
       H -5.64471e+01 -2.61745e+01  5.70441e+01             
       O -6.95784e+01 -1.70322e+01  4.86255e+01             
       H -6.90136e+01 -1.74042e+01  4.93031e+01             
       H -6.88030e+01 -1.67165e+01  4.80808e+01             
       O -5.42849e+01 -2.40530e+01  5.81296e+01             
       H -5.43738e+01 -2.34395e+01  5.73537e+01             
       H -5.33050e+01 -2.41840e+01  5.80971e+01             
       O -6.34348e+01 -7.30712e+00  5.69379e+01             
       H -6.26588e+01 -6.72117e+00  5.70902e+01             
       H -6.29861e+01 -8.21777e+00  5.70744e+01             
       O -6.25453e+01 -7.04083e+00  3.96765e+01             
       H -6.24644e+01 -1.85949e+01  3.93107e+01             
       H -6.16946e+01 -7.32049e+00  3.94047e+01             
       O -6.30640e+01 -2.55527e+01  4.10373e+01             
       H -6.23513e+01 -2.52643e+01  4.04454e+01             
       H -6.25955e+01 -2.60446e+01  4.17131e+01             
       O -7.00248e+01 -1.13361e+01  4.90149e+01             
       H -6.93941e+01 -1.19960e+01  4.86724e+01             
       H -6.94604e+01 -1.07674e+01  4.96424e+01             
       O -6.23899e+01  9.02432e+00  4.50274e+01             
       H -4.56967e+01 -1.57097e+01  4.87983e+01             
       H -6.13523e+01  9.09535e+00  4.48727e+01             
       O -5.52969e+01 -1.47688e+01  5.61932e+01             
       H -5.95169e+01 -2.00708e+01  5.26694e+01             
       H -6.76105e+01 -1.53331e+01  5.69601e+01             
       O -5.60834e+01 -2.65135e+01  5.19808e+01             
       H -5.56568e+01 -2.73921e+01  5.18512e+01             
       H -5.53841e+01 -2.59273e+01  5.22609e+01             
       O -6.46533e+01 -1.97090e+01  5.42439e+01             
       H -6.43101e+01 -1.99831e+01  5.51568e+01             
       H -6.38231e+01 -1.96301e+01  5.37651e+01             
       O -6.13312e+01 -4.08555e+01  5.36882e+01             
       H -6.05865e+01 -4.15574e+01  5.36113e+01             
       H -6.08628e+01 -4.00712e+01  6.58437e+01             
       O -6.36193e+01 -2.33863e+00  4.81658e+01             
       H -6.30440e+01 -1.79074e+00  4.75685e+01             
       H -6.30294e+01 -3.08637e+00  4.85280e+01             
       O -5.35571e+01 -1.73585e+01  5.45651e+01             
       H -5.29044e+01 -1.67223e+01  5.49523e+01             
       H -5.29876e+01 -1.81560e+01  5.43882e+01             
       O -6.10454e+01 -2.17781e+01  6.24226e+01             
       H -6.03778e+01 -2.15465e+01  6.30862e+01             
       H -6.06239e+01 -2.23780e+01  6.17378e+01             
       O -7.87368e+01 -1.96513e+01  4.52159e+01             
       H -7.88150e+01 -2.00191e+01  4.60851e+01             
       H -7.78218e+01 -1.96229e+01  4.48453e+01             
       O -5.92093e+01 -1.56686e+00  5.87158e+01             
       H -5.82795e+01 -1.22063e+00  5.84568e+01             
       H -5.90734e+01 -1.88592e+00  5.95937e+01             
       O -6.18516e+01 -1.30262e+01  4.66772e+01             
       H -6.09768e+01 -1.33919e+01  4.64621e+01             
       H -6.15497e+01 -1.22154e+01  3.46669e+01             
       O -5.64818e+01 -1.10372e+01  2.90837e+01             
       H -5.55900e+01 -1.14554e+01  2.91151e+01             
       H -6.90619e+01 -1.08978e+01  2.81228e+01             
       O -4.86118e+01 -1.34184e+01  3.06797e+01             
       H -4.83875e+01 -1.41994e+01  3.12030e+01             
       H -4.77856e+01 -1.30726e+01  3.03441e+01             
       O -6.01319e+01 -2.34273e+01  3.55617e+01             
       H -5.92786e+01 -2.37622e+01  3.59172e+01             
       H -5.98590e+01 -2.29254e+01  4.71943e+01             
       O -5.54937e+01 -1.57385e+01  3.48889e+01             
       H -6.33016e+01 -1.02316e+01  4.18227e+01             
       H -5.55954e+01 -1.48295e+01  3.51858e+01             
       O -5.84855e+01 -2.39160e+01  5.58861e+01             
       H -5.80049e+01 -2.46538e+01  5.63632e+01             
       H -5.79257e+01 -2.37732e+01  5.51109e+01             
       O -4.82747e+01 -1.23580e+01  3.99003e+01             
       H -4.75145e+01 -1.27436e+01  3.94034e+01             
       H -4.79105e+01 -1.16846e+01  4.04680e+01             
       O -5.22060e+01 -2.73423e+01  5.16497e+01             
       H -5.18015e+01 -2.67885e+01  5.23111e+01             
       H -5.13918e+01 -2.78273e+01  5.13019e+01             
       O -5.69840e+01 -8.25125e+00  5.82539e+01             
       H -5.67127e+01 -8.38359e+00  5.73737e+01             
       H -5.62326e+01 -8.60958e+00  5.87649e+01             
       O -4.74744e+01  9.17104e+00  6.93736e+01             
       H -4.69042e+01  8.47597e+00  6.90477e+01             
       H -4.69217e+01  9.59411e+00  7.00954e+01             
       O -5.70175e+01 -2.54741e+01  5.74962e+01             
       H -6.07896e+01 -2.00949e+01  3.67712e+01             
       H -5.62201e+01 -2.49044e+01  5.77803e+01             
       O -6.27611e+01 -1.67424e+01  5.14038e+01             
       H -5.45696e+01 -1.59461e+01  3.46239e+01             
       H -6.21614e+01 -1.67974e+01  5.06287e+01             
       O -5.38313e+01 -9.97164e+00  4.32915e+01             
       H -6.24083e+01 -4.34543e+00  4.52415e+01             
       H -5.36118e+01 -9.12549e+00  4.37402e+01             
       O -5.41045e+01 -2.48814e+01  5.32288e+01             
       H -6.59151e+01 -2.52027e+01  6.62745e+01             
       H -4.79795e+01 -7.00308e+00  5.82914e+01             
       O -8.88521e+01 -1.20036e+01  5.75390e+01             
       H -8.83426e+01 -1.11583e+01  5.73212e+01             
       H -8.82392e+01 -1.25499e+01  5.79920e+01             
       O -5.88570e+01 -2.74543e+01  4.89219e+01             
       H -5.87212e+01 -2.68757e+01  4.97287e+01             
       H -5.44378e+01 -1.45116e+01  5.57521e+01             
       O -6.39994e+01 -1.08523e+01  4.20367e+01             
       H -6.36025e+01 -1.17555e+01  4.17374e+01             
       H -7.16328e+01 -2.15711e+01  2.06940e+01             
       O -6.92264e+01 -2.09936e+01  4.29782e+01             
       H -6.86397e+01 -2.02439e+01  4.28168e+01             
       H -6.88357e+01 -2.18482e+01  4.27839e+01             
       O -5.33224e+01 -2.35198e+01  3.86637e+01             
       H -5.32046e+01 -2.42800e+01  3.80880e+01             
       H -5.25006e+01 -2.30581e+01  3.86577e+01             
       O -4.30767e+01 -2.53117e+01  4.81148e+01             
       H -4.23144e+01 -1.31619e+01  4.87075e+01             
       H -4.26177e+01 -2.49109e+01  4.72979e+01             
       O -5.58101e+01 -1.00341e+01  5.08935e+01             
       H -4.24595e+01 -1.03130e+01  5.09275e+01             
       H -5.58679e+01 -9.08600e+00  5.10495e+01             
       O -5.14253e+01  3.13662e+00  5.10175e+01             
       H -5.84201e+01 -3.02621e+01  4.05109e+01             
       H -6.18506e+01  2.44253e+00  4.38648e+01             
       O -6.53771e+01 -1.60566e+01  4.63407e+01             
       H -6.53818e+01 -1.68884e+01  4.58082e+01             
       H -6.45077e+01 -1.59513e+01  4.67622e+01             
       O -6.14024e+01 -4.25500e+00  3.67554e+01             
       H -6.05854e+01 -1.61180e+01  3.68795e+01             
       H -6.11912e+01 -5.12242e+00  3.64089e+01             
       O -6.95228e+01 -1.90115e+01  5.21007e+01             
       H -6.90983e+01 -1.87806e+01  5.12414e+01             
       H -6.87642e+01 -1.93842e+01  5.26247e+01             
       O -5.83963e+01 -1.76768e+01  5.61068e+01             
       H -5.88054e+01 -1.76505e+01  5.52159e+01             
       H -5.73945e+01 -1.77990e+01  5.61326e+01             
       O -7.19231e+01 -1.99467e+01  3.93469e+01             
       H -7.10676e+01 -1.95513e+01  5.16405e+01             
       H -6.59665e+01 -3.67730e+01  4.02377e+01             
       O -5.31333e+01 -2.03178e+01  6.17170e+01             
       H -5.27669e+01 -2.09434e+01  6.24190e+01             
       H -5.22884e+01 -2.01460e+01  6.11893e+01             
       O -5.85830e+01 -1.90223e+01  4.72679e+01             
       H -5.82380e+01 -1.82868e+01  4.78349e+01             
       H -5.78104e+01 -1.94937e+01  4.69618e+01             
       O -7.60378e+01 -1.58757e+01  5.52245e+01             
       H -7.53366e+01 -1.59513e+01  5.45504e+01             
       H -7.54384e+01 -1.57801e+01  5.60341e+01             
       O -5.47709e+01 -2.18441e+01  4.76014e+01             
       H -5.41654e+01 -2.13227e+01  4.82381e+01             
       H -5.43576e+01 -2.26564e+01  4.73501e+01             
       O -7.07330e+01 -1.32255e+01  2.60784e+01             
       H -7.04747e+01 -1.25446e+01  2.54530e+01             
       H -6.98412e+01 -1.35121e+01  2.64724e+01             
       O -5.96853e+01 -2.23964e+01  2.07073e+01             
       H -3.88632e+01 -8.54723e+00  3.91758e+01             
       H -5.91617e+01 -2.30732e+01  2.01542e+01             
       O -6.70789e+01 -1.62960e+01  5.22016e+01             
       H -6.69046e+01 -1.67355e+01  5.30418e+01             
       H -6.62322e+01 -1.59242e+01  5.18921e+01             
       O -6.52308e+01 -1.38045e+01  6.78394e+01             
       H -6.46312e+01 -1.45331e+01  6.76007e+01             
       H -6.48804e+01 -1.32089e+01  6.84814e+01             
192                                                         
# CELL(abcABC):   12.41850    12.41850    12.41850    90.00000    90.00000    90.00000  Step:      200000  Bead:       0 x_centroid{angstrom}  cell{angstrom}   
       O -8.61671e+01 -1.48163e+01  7.17537e+01             
       H -8.59790e+01 -1.56061e+01  7.12196e+01             
       H -8.52959e+01 -1.43619e+01  7.19469e+01             
       O -7.12888e+01 -9.07304e+00  6.10958e+01             
       H -7.34478e+01 -2.03904e+01  5.79950e+01             
       H -7.05230e+01 -8.59805e+00  6.15103e+01             
       O -7.40344e+01 -2.56422e+01  5.72709e+01             
       H -7.39131e+01 -1.38143e+01  5.80548e+01             
       H -7.31798e+01 -2.54357e+01  5.68696e+01             
       O -7.13758e+01 -2.61289e+01  5.94123e+01             
       H -7.11106e+01 -2.52440e+01  5.91399e+01             
       H -7.06753e+01 -2.67128e+01  5.91178e+01             
       O -6.24406e+01 -2.28706e+01  5.29695e+01             
       H -6.17137e+01 -2.22304e+01  5.32284e+01             
       H -6.19191e+01 -2.36956e+01  5.28895e+01             
       O -6.82069e+01 -2.00526e+01  6.94232e+01             
       H -6.76961e+01 -2.01939e+01  6.86210e+01             
       H -6.75452e+01 -2.01159e+01  7.01474e+01             
       O -7.23270e+01 -2.11330e+01  4.06352e+01             
       H -7.14679e+01 -2.13579e+01  4.03187e+01             
       H -6.35932e+01  2.27662e+00  5.41691e+01             
       O -5.71531e+01 -1.94550e+01  7.48634e+01             
       H -5.64405e+01 -1.94774e+01  7.54875e+01             
       H -5.68418e+01 -3.13072e+01  7.40978e+01             
       O -8.25694e+01 -1.12333e+01  4.73005e+01             
       H -8.17391e+01 -1.12745e+01  4.78070e+01             
       H -8.22279e+01 -1.10933e+01  4.63617e+01             
       O -7.35928e+01 -2.52732e+01  5.29320e+01             
       H -7.32726e+01 -2.57711e+01  5.20995e+01             
       H -7.28162e+01 -2.53235e+01  5.35318e+01             
       O -7.85481e+01 -9.67796e+00  6.26390e+01             
       H -7.78146e+01 -1.01187e+01  6.30891e+01             
       H -7.80538e+01 -9.30623e+00  6.18996e+01             
       O -7.49437e+01 -1.55804e+01  4.94031e+01             
       H -7.44460e+01 -1.54271e+01  4.85322e+01             
       H -6.34975e+01 -1.39003e+01  4.96875e+01             
       O -7.04164e+01 -3.02326e+01  4.54138e+01             
       H -6.97871e+01 -3.08919e+01  4.57686e+01             
       H -6.72958e+01 -2.90017e+01  6.33674e+01             
       O -7.91644e+01 -1.64015e+01  5.43604e+01             
       H -7.83031e+01 -1.69245e+01  5.42867e+01             
       H -7.88430e+01 -1.56346e+01  5.38669e+01             
       O -6.56016e+01 -2.64465e+01  6.43948e+01             
       H -6.51074e+01 -2.59716e+01  6.36613e+01             
       H -6.48752e+01 -2.69885e+01  6.48507e+01             
       O -7.33412e+01 -1.04942e+01  6.20245e+01             
       H -7.26212e+01 -9.86583e+00  6.17887e+01             
       H -7.28115e+01 -1.13072e+01  6.20735e+01             
       O -7.51886e+01 -1.06017e+01  4.50909e+01             
       H -7.47169e+01 -2.21754e+01  4.50816e+01             
       H -7.46128e+01 -1.14127e+01  4.49937e+01             
       O -7.30313e+01 -2.93314e+01  4.49007e+01             
       H -7.28731e+01 -2.91142e+01  4.39388e+01             
       H -7.21755e+01 -2.98455e+01  4.51293e+01             
       O -7.99343e+01 -1.50208e+01  5.66972e+01             
       H -7.97304e+01 -1.57102e+01  5.59951e+01             
       H -7.90916e+01 -1.49166e+01  5.72527e+01             
       O -7.37937e+01  5.28331e+00  5.14585e+01             
       H -5.56753e+01 -1.89385e+01  5.29270e+01             
       H -7.29872e+01  5.85302e+00  5.12028e+01             
       O -6.63123e+01 -1.80093e+01  6.31894e+01             
       H -6.94971e+01 -2.28836e+01  5.58277e+01             
       H -7.85025e+01 -1.86390e+01  6.38981e+01             
       O -6.85999e+01 -3.08927e+01  6.02974e+01             
       H -6.77975e+01 -3.14464e+01  5.99671e+01             
       H -6.82593e+01 -3.00214e+01  6.01338e+01             
       O -7.67021e+01 -2.35668e+01  5.94679e+01             
       H -7.61041e+01 -2.37476e+01  6.02439e+01             
       H -7.62027e+01 -2.32966e+01  5.86584e+01             
       O -7.29265e+01 -4.47579e+01  5.93981e+01             
       H -7.22391e+01 -4.52855e+01  5.98545e+01             
       H -7.25157e+01 -4.38806e+01  7.17756e+01             
       O -7.24966e+01 -4.68965e+00  5.43808e+01             
       H -7.15879e+01 -5.15556e+00  5.47105e+01             
       H -7.21918e+01 -3.86481e+00  5.40250e+01             
       O -6.48539e+01 -2.12151e+01  6.05169e+01             
       H -6.40761e+01 -2.07596e+01  6.09031e+01             
       H -6.44782e+01 -2.19038e+01  5.99524e+01             
       O -7.17566e+01 -2.50504e+01  6.72976e+01             
       H -7.12655e+01 -2.41940e+01  6.72043e+01             
       H -7.09852e+01 -2.56234e+01  6.73661e+01             
       O -8.82427e+01 -2.32490e+01  5.04266e+01             
       H -8.78845e+01 -2.29651e+01  5.13060e+01             
       H -8.74534e+01 -2.30003e+01  4.98525e+01             
       O -7.03977e+01 -3.61242e+00  6.44706e+01             
       H -7.01950e+01 -4.19630e+00  6.52476e+01             
       H -6.94872e+01 -3.61082e+00  6.39843e+01             
       O -7.27391e+01 -1.46288e+01  5.07573e+01             
       H -7.23175e+01 -1.39018e+01  5.01679e+01             
       H -7.19283e+01 -1.50573e+01  3.87500e+01             
       O -6.53012e+01 -1.49934e+01  3.31442e+01             
       H -6.46959e+01 -1.48001e+01  3.24257e+01             
       H -7.73956e+01 -1.58188e+01  3.35311e+01             
       O -5.92692e+01 -1.74740e+01  3.53286e+01             
       H -5.89226e+01 -1.76197e+01  3.62070e+01             
       H -5.84344e+01 -1.74838e+01  3.47684e+01             
       O -6.98880e+01 -2.70327e+01  4.26929e+01             
       H -6.91820e+01 -2.67993e+01  4.33170e+01             
       H -6.94108e+01 -2.71148e+01  5.42433e+01             
       O -6.45559e+01 -1.79504e+01  4.21637e+01             
       H -7.78566e+01 -1.36616e+01  4.88473e+01             
       H -6.42119e+01 -1.79616e+01  4.30784e+01             
       O -6.80171e+01 -2.81279e+01  6.06217e+01             
       H -6.82205e+01 -2.81227e+01  6.16227e+01             
       H -6.72489e+01 -2.76426e+01  6.05705e+01             
       O -5.69506e+01 -1.54374e+01  4.60035e+01             
       H -5.63456e+01 -1.51698e+01  4.52290e+01             
       H -5.63151e+01 -1.54082e+01  4.67669e+01             
       O -6.28984e+01 -3.03923e+01  5.72562e+01             
       H -6.19778e+01 -2.99788e+01  5.73958e+01             
       H -6.25895e+01 -3.12836e+01  5.69493e+01             
       O -6.93370e+01 -1.21534e+01  6.35484e+01             
       H -6.86679e+01 -1.20488e+01  6.28521e+01             
       H -6.88910e+01 -1.26502e+01  6.42877e+01             
       O -5.93723e+01  6.55155e+00  7.54098e+01             
       H -5.84573e+01  6.09446e+00  7.52344e+01             
       H -5.91856e+01  7.37877e+00  7.58637e+01             
       O -6.79464e+01 -2.83195e+01  6.33627e+01             
       H -7.21766e+01 -2.07622e+01  4.15110e+01             
       H -6.74774e+01 -2.74535e+01  6.35565e+01             
       O -7.40234e+01 -2.06298e+01  5.71564e+01             
       H -6.38336e+01 -1.80467e+01  4.15105e+01             
       H -7.32381e+01 -2.07140e+01  5.65002e+01             
       O -6.41869e+01 -1.32943e+01  4.99232e+01             
       H -7.32892e+01 -7.80042e+00  5.20152e+01             
       H -6.38598e+01 -1.23409e+01  5.01201e+01             
       O -6.47509e+01 -3.00327e+01  5.89136e+01             
       H -7.69441e+01 -3.00975e+01  7.23351e+01             
       H -5.84799e+01 -9.85867e+00  6.06751e+01             
       O -1.00612e+02 -1.50954e+01  6.56623e+01             
       H -9.98406e+01 -1.45141e+01  6.55045e+01             
       H -1.00217e+02 -1.59922e+01  6.55134e+01             
       O -6.86444e+01 -3.06137e+01  5.31980e+01             
       H -6.80234e+01 -2.99513e+01  5.35675e+01             
       H -6.55063e+01 -1.78211e+01  6.26326e+01             
       O -7.85502e+01 -1.35834e+01  4.80685e+01             
       H -7.81270e+01 -1.38537e+01  4.71880e+01             
       H -8.31283e+01 -2.49419e+01  2.57094e+01             
       O -8.02486e+01 -2.40671e+01  4.90678e+01             
       H -7.97689e+01 -2.32089e+01  4.93478e+01             
       H -7.96041e+01 -2.46858e+01  4.86225e+01             
       O -6.57873e+01 -2.44161e+01  4.30251e+01             
       H -6.51964e+01 -2.36158e+01  4.29825e+01             
       H -6.51234e+01 -2.51944e+01  4.30530e+01             
       O -5.13453e+01 -2.64683e+01  5.59343e+01             
       H -5.05217e+01 -1.36583e+01  5.63062e+01             
       H -5.10574e+01 -2.68962e+01  5.51066e+01             
       O -6.63907e+01 -1.18652e+01  5.79330e+01             
       H -5.32330e+01 -1.19035e+01  5.85846e+01             
       H -6.60437e+01 -1.19275e+01  5.69399e+01             
       O -6.42007e+01  2.48422e+00  5.49513e+01             
       H -7.00830e+01 -2.93117e+01  4.56027e+01             
       H -7.40987e+01 -2.97894e+00  5.00075e+01             
       O -7.49012e+01 -1.77996e+01  5.32013e+01             
       H -7.46479e+01 -1.83785e+01  5.24141e+01             
       H -7.40279e+01 -1.76847e+01  5.37059e+01             
       O -7.19145e+01 -8.34410e+00  4.32809e+01             
       H -7.12946e+01 -2.15788e+01  4.33070e+01             
       H -7.13310e+01 -7.59326e+00  4.32923e+01             
       O -8.10096e+01 -2.31001e+01  5.75412e+01             
       H -8.09222e+01 -2.21238e+01  5.75624e+01             
       H -8.00869e+01 -2.34432e+01  5.78201e+01             
       O -6.74773e+01 -2.05970e+01  6.46847e+01             
       H -6.69315e+01 -2.10483e+01  6.40299e+01             
       H -6.67651e+01 -2.06058e+01  6.55675e+01             
       O -8.25834e+01 -2.28406e+01  4.26983e+01             
       H -8.22524e+01 -2.23085e+01  5.43837e+01             
       H -7.63948e+01 -4.27236e+01  4.59198e+01             
       O -6.61029e+01 -2.02439e+01  6.69470e+01             
       H -6.55285e+01 -2.09516e+01  6.71928e+01             
       H -6.56265e+01 -1.93604e+01  6.70136e+01             
       O -6.98132e+01 -2.19065e+01  5.25860e+01             
       H -6.88915e+01 -2.14523e+01  5.24742e+01             
       H -6.97030e+01 -2.27036e+01  5.19904e+01             
       O -8.75347e+01 -1.98128e+01  6.14472e+01             
       H -8.67978e+01 -1.97565e+01  6.08329e+01             
       H -8.69973e+01 -1.99109e+01  6.23422e+01             
       O -6.80103e+01 -2.57236e+01  5.32252e+01             
       H -6.76196e+01 -2.50286e+01  5.37814e+01             
       H -6.71723e+01 -2.60688e+01  5.28390e+01             
       O -8.28857e+01 -1.84751e+01  3.02166e+01             
       H -8.21625e+01 -1.84866e+01  2.94308e+01             
       H -8.24437e+01 -1.81713e+01  3.10081e+01             
       O -7.14463e+01 -2.51071e+01  2.50179e+01             
       H -5.11738e+01 -9.97646e+00  4.32812e+01             
       H -7.09436e+01 -2.50908e+01  2.41932e+01             
       O -7.89074e+01 -1.96457e+01  5.91296e+01             
       H -7.82117e+01 -2.01975e+01  5.95449e+01             
       H -7.83941e+01 -1.88140e+01  5.89044e+01             
       O -7.65861e+01 -1.76128e+01  7.40842e+01             
       H -7.60579e+01 -1.84392e+01  7.40471e+01             
       H -7.60454e+01 -1.68058e+01  7.43475e+01             
