192                                                         
# CELL(abcABC):   12.41850    12.41850    12.41850    90.00000    90.00000    90.00000  Step:           0  Bead:       0 x_centroid{angstrom}  cell{angstrom}   
       O -7.63270e+01 -1.02291e+01  7.11945e+01             
       H -7.65613e+01 -1.09010e+01  7.05149e+01             
       H -7.53364e+01 -1.01569e+01  7.11578e+01             
       O -6.27754e+01 -6.58719e+00  5.66458e+01             
       H -6.56533e+01 -1.77419e+01  5.34290e+01             
       H -6.21406e+01 -6.03754e+00  5.71944e+01             
       O -6.85591e+01 -2.59096e+01  5.07575e+01             
       H -6.81026e+01 -1.38075e+01  5.15954e+01             
       H -6.78182e+01 -2.57870e+01  5.00467e+01             
       O -6.10237e+01 -2.11366e+01  5.55351e+01             
       H -6.04490e+01 -2.13914e+01  5.63167e+01             
       H -6.03804e+01 -2.11580e+01  5.48411e+01             
       O -5.40296e+01 -2.06731e+01  4.88924e+01             
       H -5.32346e+01 -2.01499e+01  4.90363e+01             
       H -5.36430e+01 -2.16286e+01  4.89669e+01             
       O -5.81256e+01 -1.90567e+01  6.38831e+01             
       H -5.75423e+01 -1.96280e+01  6.33403e+01             
       H -5.75590e+01 -1.84592e+01  6.44870e+01             
       O -6.40605e+01 -1.94187e+01  3.70880e+01             
       H -6.31874e+01 -1.92816e+01  3.66517e+01             
       H -5.40368e+01  2.54843e+00  5.20882e+01             
       O -4.87228e+01 -1.67757e+01  6.64842e+01             
       H -4.86866e+01 -1.77287e+01  6.66095e+01             
       H -4.77510e+01 -2.89607e+01  6.65038e+01             
       O -7.19074e+01 -1.07289e+01  4.07301e+01             
       H -7.18025e+01 -1.12123e+01  4.15654e+01             
       H -7.10623e+01 -1.08753e+01  4.01843e+01             
       O -7.09056e+01 -2.22740e+01  4.90719e+01             
       H -7.03723e+01 -2.30052e+01  4.87259e+01             
       H -7.02896e+01 -2.17911e+01  4.96044e+01             
       O -6.97862e+01 -6.50951e+00  5.90778e+01             
       H -6.89174e+01 -6.98877e+00  5.89420e+01             
       H -6.95406e+01 -5.64873e+00  5.92845e+01             
       O -6.52636e+01 -1.06920e+01  4.86262e+01             
       H -6.46597e+01 -1.05285e+01  4.78536e+01             
       H -5.58001e+01 -1.07424e+01  4.52280e+01             
       O -6.23524e+01 -3.14563e+01  4.06003e+01             
       H -6.21848e+01 -3.08038e+01  3.99686e+01             
       H -5.86193e+01 -2.56750e+01  5.93876e+01             
       O -7.23418e+01 -1.76109e+01  5.01347e+01             
       H -7.18188e+01 -1.82333e+01  5.06606e+01             
       H -7.15727e+01 -1.71620e+01  4.97739e+01             
       O -5.71154e+01 -2.46082e+01  6.01988e+01             
       H -5.69133e+01 -2.41740e+01  5.93410e+01             
       H -5.62478e+01 -2.48819e+01  6.05553e+01             
       O -6.48620e+01 -7.86542e+00  5.78124e+01             
       H -6.41222e+01 -7.32567e+00  5.73882e+01             
       H -6.44850e+01 -8.57046e+00  5.83538e+01             
       O -6.46355e+01 -8.33587e+00  4.12726e+01             
       H -6.41201e+01 -1.98979e+01  4.11828e+01             
       H -6.39436e+01 -8.92827e+00  4.14387e+01             
       O -6.45964e+01 -2.40263e+01  4.39283e+01             
       H -6.39375e+01 -2.36158e+01  4.33418e+01             
       H -6.40952e+01 -2.49364e+01  4.40570e+01             
       O -7.41519e+01 -1.22783e+01  5.24408e+01             
       H -7.33061e+01 -1.17419e+01  5.24388e+01             
       H -7.37356e+01 -1.32209e+01  5.24658e+01             
       O -6.58663e+01  7.17451e+00  4.66248e+01             
       H -4.90644e+01 -1.69345e+01  5.08893e+01             
       H -6.51347e+01  7.84439e+00  4.65970e+01             
       O -5.89663e+01 -1.61207e+01  5.84023e+01             
       H -6.22059e+01 -2.24903e+01  5.47415e+01             
       H -7.10174e+01 -1.63952e+01  5.92448e+01             
       O -5.85735e+01 -2.86074e+01  5.39659e+01             
       H -5.78510e+01 -2.91645e+01  5.36206e+01             
       H -5.82519e+01 -2.84502e+01  5.49303e+01             
       O -6.67375e+01 -2.09239e+01  5.53966e+01             
       H -6.62195e+01 -2.07588e+01  5.61865e+01             
       H -6.59839e+01 -2.08594e+01  5.47194e+01             
       O -6.50502e+01 -4.21519e+01  5.53911e+01             
       H -6.43306e+01 -4.26763e+01  5.58060e+01             
       H -6.47752e+01 -4.12698e+01  6.76390e+01             
       O -6.45727e+01 -2.31574e+00  4.88152e+01             
       H -6.39853e+01 -1.79631e+00  4.93196e+01             
       H -6.45906e+01 -3.14145e+00  4.92473e+01             
       O -5.65661e+01 -1.96190e+01  5.54148e+01             
       H -5.63748e+01 -1.89373e+01  5.60602e+01             
       H -5.57027e+01 -2.00687e+01  5.53241e+01             
       O -6.47989e+01 -2.55480e+01  6.50227e+01             
       H -6.42195e+01 -2.61853e+01  6.55051e+01             
       H -6.43713e+01 -2.54176e+01  6.41364e+01             
       O -8.00315e+01 -2.05855e+01  4.63486e+01             
       H -7.95300e+01 -2.06576e+01  4.71916e+01             
       H -7.93390e+01 -2.02866e+01  4.57728e+01             
       O -6.14395e+01 -1.60326e+00  6.07087e+01             
       H -6.10616e+01 -2.00083e+00  6.14861e+01             
       H -6.06416e+01 -1.23989e+00  6.02404e+01             
       O -6.32579e+01 -1.24993e+01  4.98038e+01             
       H -6.25611e+01 -1.29429e+01  4.91968e+01             
       H -6.26211e+01 -1.19596e+01  3.78793e+01             
       O -5.88028e+01 -1.30600e+01  2.99383e+01             
       H -5.78128e+01 -1.29607e+01  2.99598e+01             
       H -7.13947e+01 -1.33473e+01  2.90152e+01             
       O -5.04262e+01 -1.36998e+01  3.17207e+01             
       H -5.04395e+01 -1.43051e+01  3.24663e+01             
       H -4.94456e+01 -1.33344e+01  3.18092e+01             
       O -6.49021e+01 -2.29666e+01  3.91279e+01             
       H -6.47929e+01 -2.35099e+01  3.98805e+01             
       H -6.42209e+01 -2.22481e+01  5.15718e+01             
       O -5.79054e+01 -1.66402e+01  3.60200e+01             
       H -6.77487e+01 -1.07724e+01  4.31372e+01             
       H -5.69798e+01 -1.70096e+01  3.61481e+01             
       O -6.05029e+01 -2.50544e+01  5.67838e+01             
       H -6.00478e+01 -2.53355e+01  5.75639e+01             
       H -5.97971e+01 -2.53284e+01  5.60764e+01             
       O -5.08621e+01 -1.51019e+01  4.18008e+01             
       H -4.99842e+01 -1.55164e+01  4.15780e+01             
       H -5.06824e+01 -1.46134e+01  4.26176e+01             
       O -5.45326e+01 -2.70280e+01  5.28516e+01             
       H -5.37952e+01 -2.64351e+01  5.26906e+01             
       H -5.40585e+01 -2.79093e+01  5.29132e+01             
       O -5.95549e+01 -8.14457e+00  5.98480e+01             
       H -5.89744e+01 -7.61656e+00  5.92627e+01             
       H -5.90414e+01 -8.71078e+00  6.04545e+01             
       O -5.16132e+01  8.99825e+00  7.11552e+01             
       H -5.07818e+01  8.50251e+00  7.11866e+01             
       H -5.17559e+01  9.34135e+00  7.20146e+01             
       O -5.94699e+01 -2.59526e+01  5.90588e+01             
       H -6.37314e+01 -1.98695e+01  3.78877e+01             
       H -5.92781e+01 -2.69416e+01  5.87736e+01             
       O -6.62461e+01 -1.74780e+01  5.27099e+01             
       H -5.78289e+01 -1.56960e+01  3.63288e+01             
       H -6.57625e+01 -1.73771e+01  5.18731e+01             
       O -5.65628e+01 -1.04495e+01  4.58400e+01             
       H -6.53887e+01 -6.08058e+00  4.64143e+01             
       H -5.62233e+01 -9.53412e+00  4.60885e+01             
       O -5.61525e+01 -2.61455e+01  5.50048e+01             
       H -6.79430e+01 -2.65333e+01  6.66855e+01             
       H -4.98224e+01 -7.07751e+00  5.60140e+01             
       O -9.15549e+01 -1.28799e+01  6.12002e+01             
       H -9.10496e+01 -1.20129e+01  6.11331e+01             
       H -9.08718e+01 -1.34910e+01  6.08746e+01             
       O -6.23077e+01 -2.92850e+01  5.14364e+01             
       H -6.20528e+01 -2.89698e+01  5.22855e+01             
       H -5.82254e+01 -1.60489e+01  5.77313e+01             
       O -6.74020e+01 -1.14710e+01  4.37125e+01             
       H -6.63838e+01 -1.13765e+01  4.37754e+01             
       H -7.31132e+01 -2.32250e+01  2.06881e+01             
       O -7.08747e+01 -2.12117e+01  4.37295e+01             
       H -7.01959e+01 -2.06344e+01  4.33806e+01             
       H -7.04666e+01 -2.17265e+01  4.44727e+01             
       O -5.72047e+01 -2.36812e+01  3.94275e+01             
       H -5.67483e+01 -2.44817e+01  3.90773e+01             
       H -5.64853e+01 -2.31385e+01  3.96725e+01             
       O -4.59272e+01 -2.65715e+01  4.96413e+01             
       H -4.51065e+01 -1.39656e+01  5.01608e+01             
       H -4.59069e+01 -2.57669e+01  4.91479e+01             
       O -6.25431e+01 -9.07585e+00  5.07733e+01             
       H -4.98208e+01 -9.59995e+00  5.00622e+01             
       H -6.18150e+01 -8.74490e+00  5.13113e+01             
       O -5.49305e+01  3.00300e+00  5.22346e+01             
       H -6.16147e+01 -3.20873e+01  4.06665e+01             
       H -6.47376e+01  1.35139e+00  4.93498e+01             
       O -6.76834e+01 -1.70860e+01  4.86929e+01             
       H -6.71435e+01 -1.72959e+01  4.79004e+01             
       H -6.70253e+01 -1.68691e+01  4.93885e+01             
       O -6.48937e+01 -4.73230e+00  3.80730e+01             
       H -6.39848e+01 -1.68569e+01  3.83451e+01             
       H -6.45633e+01 -5.65099e+00  3.76454e+01             
       O -7.25234e+01 -2.06036e+01  5.25896e+01             
       H -7.17305e+01 -2.00802e+01  5.22454e+01             
       H -7.22280e+01 -2.14731e+01  5.28770e+01             
       O -6.16182e+01 -1.72666e+01  5.87554e+01             
       H -6.08059e+01 -1.68543e+01  5.85035e+01             
       H -6.15049e+01 -1.78208e+01  5.95443e+01             
       O -7.53825e+01 -2.29367e+01  4.19190e+01             
       H -7.51091e+01 -2.36951e+01  5.38412e+01             
       H -6.80869e+01 -3.78684e+01  4.29130e+01             
       O -5.65174e+01 -2.07617e+01  6.25600e+01             
       H -5.58152e+01 -2.11532e+01  6.31959e+01             
       H -5.59712e+01 -2.04033e+01  6.18928e+01             
       O -6.14287e+01 -1.89414e+01  4.84083e+01             
       H -6.08031e+01 -1.84336e+01  4.90126e+01             
       H -6.07690e+01 -1.95588e+01  4.80191e+01             
       O -7.99766e+01 -1.76017e+01  5.67736e+01             
       H -7.92122e+01 -1.76968e+01  5.61696e+01             
       H -7.95724e+01 -1.73813e+01  5.76336e+01             
       O -6.11696e+01 -2.31241e+01  4.89035e+01             
       H -6.02907e+01 -2.28226e+01  4.90682e+01             
       H -6.13422e+01 -2.32378e+01  4.79490e+01             
       O -7.23339e+01 -1.43810e+01  2.73210e+01             
       H -7.16141e+01 -1.42221e+01  2.66762e+01             
       H -7.19750e+01 -1.51079e+01  2.78550e+01             
       O -6.11531e+01 -2.24973e+01  2.11870e+01             
       H -4.22668e+01 -8.81001e+00  4.05121e+01             
       H -6.05395e+01 -2.17990e+01  2.15181e+01             
       O -6.89905e+01 -1.77049e+01  5.32093e+01             
       H -6.88048e+01 -1.82979e+01  5.39677e+01             
       H -6.80854e+01 -1.77732e+01  5.27647e+01             
       O -6.94840e+01 -1.56398e+01  6.90036e+01             
       H -6.87132e+01 -1.62415e+01  6.91185e+01             
       H -6.91455e+01 -1.48898e+01  6.84143e+01             
192                                                         
# CELL(abcABC):   12.41850    12.41850    12.41850    90.00000    90.00000    90.00000  Step:      200000  Bead:       0 x_centroid{angstrom}  cell{angstrom}   
       O -8.76266e+01 -1.26742e+01  7.68087e+01             
       H -8.75376e+01 -1.33689e+01  7.61399e+01             
       H -8.67104e+01 -1.23755e+01  7.70125e+01             
       O -7.24924e+01 -1.16672e+01  6.45773e+01             
       H -7.76070e+01 -1.97230e+01  5.91499e+01             
       H -7.19309e+01 -1.13420e+01  6.38387e+01             
       O -8.02542e+01 -2.84014e+01  5.61058e+01             
       H -7.99823e+01 -1.64805e+01  5.69025e+01             
       H -7.94615e+01 -2.80092e+01  5.56274e+01             
       O -7.25944e+01 -2.33580e+01  6.04682e+01             
       H -7.18864e+01 -2.33058e+01  6.11455e+01             
       H -7.20813e+01 -2.34172e+01  5.96129e+01             
       O -6.52705e+01 -2.37070e+01  5.49257e+01             
       H -6.46915e+01 -2.29822e+01  5.51915e+01             
       H -6.47564e+01 -2.45379e+01  5.47981e+01             
       O -6.91024e+01 -2.24191e+01  6.98937e+01             
       H -6.84521e+01 -2.29839e+01  6.94498e+01             
       H -6.86324e+01 -2.17974e+01  7.05686e+01             
       O -7.46778e+01 -2.22435e+01  4.02635e+01             
       H -7.40853e+01 -2.15303e+01  4.00533e+01             
       H -6.72249e+01 -1.72602e+00  5.95485e+01             
       O -6.24243e+01 -2.17744e+01  7.35891e+01             
       H -6.21094e+01 -2.23378e+01  7.28861e+01             
       H -6.16101e+01 -3.37327e+01  7.38004e+01             
       O -8.35185e+01 -1.14359e+01  4.60343e+01             
       H -8.27890e+01 -1.08840e+01  4.55637e+01             
       H -8.30737e+01 -1.20210e+01  4.66839e+01             
       O -8.18509e+01 -2.51404e+01  5.45924e+01             
       H -8.16551e+01 -2.53794e+01  5.36288e+01             
       H -8.10585e+01 -2.48928e+01  5.50705e+01             
       O -8.11296e+01 -9.71115e+00  6.54825e+01             
       H -8.09466e+01 -9.00451e+00  6.60941e+01             
       H -8.03000e+01 -9.92480e+00  6.49941e+01             
       O -7.63453e+01 -1.34986e+01  5.42342e+01             
       H -7.59515e+01 -1.32073e+01  5.33522e+01             
       H -6.78531e+01 -1.38919e+01  5.17662e+01             
       O -7.42825e+01 -3.44799e+01  4.50847e+01             
       H -7.36575e+01 -3.52047e+01  4.48710e+01             
       H -6.81484e+01 -2.84821e+01  6.46878e+01             
       O -8.28618e+01 -2.01754e+01  5.54559e+01             
       H -8.23122e+01 -2.08260e+01  5.59283e+01             
       H -8.21799e+01 -1.94054e+01  5.52760e+01             
       O -6.67577e+01 -2.76374e+01  6.45048e+01             
       H -6.61956e+01 -2.75848e+01  6.36814e+01             
       H -6.62410e+01 -2.79628e+01  6.53273e+01             
       O -7.66974e+01 -1.09504e+01  6.30773e+01             
       H -7.62302e+01 -1.03678e+01  6.23952e+01             
       H -7.59744e+01 -1.14810e+01  6.35782e+01             
       O -7.73013e+01 -1.20294e+01  4.63953e+01             
       H -7.69920e+01 -2.38420e+01  4.56663e+01             
       H -7.65890e+01 -1.27522e+01  4.62588e+01             
       O -7.52082e+01 -2.72750e+01  5.02144e+01             
       H -7.47920e+01 -2.70964e+01  4.93146e+01             
       H -7.45850e+01 -2.80125e+01  5.05566e+01             
       O -8.41237e+01 -1.50072e+01  5.90538e+01             
       H -8.35237e+01 -1.46403e+01  5.84014e+01             
       H -8.35189e+01 -1.53909e+01  5.97459e+01             
       O -7.68729e+01  4.56571e+00  5.21539e+01             
       H -5.94318e+01 -1.98184e+01  5.67844e+01             
       H -7.62551e+01  5.34474e+00  5.24742e+01             
       O -7.04915e+01 -2.08687e+01  6.37652e+01             
       H -7.28248e+01 -2.64726e+01  5.97525e+01             
       H -8.23983e+01 -2.15064e+01  6.43053e+01             
       O -7.02571e+01 -3.15062e+01  6.05719e+01             
       H -6.98447e+01 -3.11652e+01  6.13455e+01             
       H -6.95570e+01 -3.18889e+01  6.00235e+01             
       O -7.82058e+01 -2.47599e+01  6.14369e+01             
       H -7.76885e+01 -2.42427e+01  6.20456e+01             
       H -7.76683e+01 -2.47998e+01  6.06311e+01             
       O -7.66794e+01 -4.45116e+01  6.05736e+01             
       H -7.61008e+01 -4.52251e+01  6.08271e+01             
       H -7.59242e+01 -4.38709e+01  7.28567e+01             
       O -7.76487e+01 -7.42895e+00  5.61093e+01             
       H -7.72308e+01 -6.49272e+00  5.58594e+01             
       H -7.70039e+01 -8.17304e+00  5.59143e+01             
       O -6.75964e+01 -2.26961e+01  6.18169e+01             
       H -6.70566e+01 -2.18932e+01  6.21064e+01             
       H -6.69308e+01 -2.34100e+01  6.16007e+01             
       O -7.64425e+01 -2.92642e+01  7.11327e+01             
       H -7.58548e+01 -2.97424e+01  7.17648e+01             
       H -7.60651e+01 -2.83980e+01  7.11172e+01             
       O -9.13622e+01 -2.34930e+01  5.21528e+01             
       H -9.09460e+01 -2.36093e+01  5.30946e+01             
       H -9.05580e+01 -2.33883e+01  5.15122e+01             
       O -7.39264e+01 -5.33270e+00  6.81757e+01             
       H -7.34654e+01 -6.05543e+00  6.85865e+01             
       H -7.32636e+01 -4.62916e+00  6.80418e+01             
       O -7.65432e+01 -1.75402e+01  5.57310e+01             
       H -7.55073e+01 -1.75878e+01  5.56264e+01             
       H -7.66227e+01 -1.72507e+01  4.42299e+01             
       O -7.01544e+01 -1.56606e+01  3.62647e+01             
       H -6.91753e+01 -1.59243e+01  3.60573e+01             
       H -8.24388e+01 -1.47512e+01  3.65368e+01             
       O -6.15061e+01 -1.72802e+01  3.83412e+01             
       H -6.17592e+01 -1.77409e+01  3.91238e+01             
       H -6.05755e+01 -1.69780e+01  3.84296e+01             
       O -7.54917e+01 -2.66896e+01  4.60140e+01             
       H -7.47649e+01 -2.64198e+01  4.66417e+01             
       H -7.51840e+01 -2.65470e+01  5.75293e+01             
       O -6.88610e+01 -1.81542e+01  4.23266e+01             
       H -7.79644e+01 -1.40407e+01  4.97584e+01             
       H -6.80887e+01 -1.86838e+01  4.20679e+01             
       O -7.13818e+01 -2.87960e+01  6.34433e+01             
       H -7.06887e+01 -2.89378e+01  6.42083e+01             
       H -7.08687e+01 -2.87011e+01  6.26700e+01             
       O -6.22226e+01 -1.80995e+01  4.80391e+01             
       H -6.13591e+01 -1.80500e+01  4.75769e+01             
       H -6.20073e+01 -1.79166e+01  4.89503e+01             
       O -6.67266e+01 -2.96215e+01  5.85505e+01             
       H -6.57565e+01 -2.94730e+01  5.87473e+01             
       H -6.66741e+01 -3.05987e+01  5.85551e+01             
       O -7.12524e+01 -1.09829e+01  6.68048e+01             
       H -7.06828e+01 -1.02407e+01  6.65605e+01             
       H -7.05377e+01 -1.16484e+01  6.69865e+01             
       O -6.23143e+01  6.00176e+00  7.79134e+01             
       H -6.15017e+01  5.42212e+00  7.79074e+01             
       H -6.21597e+01  6.52032e+00  7.87626e+01             
       O -6.89878e+01 -2.90593e+01  6.47846e+01             
       H -7.39547e+01 -2.29138e+01  4.02982e+01             
       H -6.89341e+01 -2.95240e+01  6.56383e+01             
       O -7.83703e+01 -1.97624e+01  5.85712e+01             
       H -6.84769e+01 -1.73592e+01  4.27783e+01             
       H -7.79827e+01 -1.98148e+01  5.76244e+01             
       O -6.84188e+01 -1.31237e+01  5.18492e+01             
       H -7.64582e+01 -8.66501e+00  5.22932e+01             
       H -6.77633e+01 -1.23086e+01  5.19089e+01             
       O -6.74013e+01 -2.79696e+01  6.05730e+01             
       H -7.95253e+01 -2.86683e+01  7.23739e+01             
       H -5.95761e+01 -1.14926e+01  6.53703e+01             
       O -1.02857e+02 -1.54772e+01  6.69961e+01             
       H -1.02338e+02 -1.46694e+01  6.70252e+01             
       H -1.02299e+02 -1.61542e+01  6.73971e+01             
       O -7.26529e+01 -3.19134e+01  5.72608e+01             
       H -7.24162e+01 -3.14235e+01  5.80801e+01             
       H -6.98780e+01 -2.02031e+01  6.33180e+01             
       O -7.78209e+01 -1.49599e+01  4.99728e+01             
       H -7.68241e+01 -1.50393e+01  5.01093e+01             
       H -8.47502e+01 -2.76169e+01  2.72014e+01             
       O -8.25653e+01 -2.39839e+01  5.03346e+01             
       H -8.20069e+01 -2.32046e+01  5.01292e+01             
       H -8.19513e+01 -2.45592e+01  5.08602e+01             
       O -6.96533e+01 -2.54331e+01  4.79657e+01             
       H -6.87442e+01 -2.55015e+01  4.75537e+01             
       H -6.96311e+01 -2.49533e+01  4.87977e+01             
       O -5.78401e+01 -2.71164e+01  5.65346e+01             
       H -5.71030e+01 -1.53144e+01  5.64892e+01             
       H -5.75592e+01 -2.63345e+01  5.60848e+01             
       O -7.43061e+01 -1.38487e+01  5.57372e+01             
       H -6.11588e+01 -1.45396e+01  5.55139e+01             
       H -7.36697e+01 -1.30893e+01  5.58496e+01             
       O -6.74700e+01 -8.92846e-01  5.90465e+01             
       H -7.37645e+01 -3.36387e+01  4.51780e+01             
       H -7.54851e+01 -1.23984e+00  5.47802e+01             
       O -7.93587e+01 -2.00889e+01  5.41962e+01             
       H -7.86427e+01 -2.00903e+01  5.35095e+01             
       H -7.87732e+01 -2.00713e+01  5.50501e+01             
       O -7.59895e+01 -9.44062e+00  4.31042e+01             
       H -7.54022e+01 -2.19205e+01  4.39272e+01             
       H -7.53935e+01 -9.36761e+00  4.23268e+01             
       O -8.52593e+01 -2.40585e+01  5.64433e+01             
       H -8.47302e+01 -2.36007e+01  5.57558e+01             
       H -8.47094e+01 -2.42155e+01  5.73168e+01             
       O -7.26593e+01 -2.05071e+01  6.18794e+01             
       H -7.22186e+01 -1.99971e+01  6.11958e+01             
       H -7.19032e+01 -2.10261e+01  6.23621e+01             
       O -8.60576e+01 -2.59768e+01  4.76922e+01             
       H -8.57613e+01 -2.50461e+01  6.03263e+01             
       H -7.90473e+01 -4.01997e+01  4.87367e+01             
       O -6.74271e+01 -2.41927e+01  6.85101e+01             
       H -6.70899e+01 -2.48071e+01  6.91015e+01             
       H -6.65328e+01 -2.38042e+01  6.80986e+01             
       O -7.22144e+01 -2.00977e+01  5.31290e+01             
       H -7.15277e+01 -2.00181e+01  5.37210e+01             
       H -7.17438e+01 -2.04393e+01  5.22920e+01             
       O -9.11802e+01 -2.01253e+01  6.24397e+01             
       H -9.04544e+01 -1.98361e+01  6.18122e+01             
       H -9.05554e+01 -2.02407e+01  6.32544e+01             
       O -7.23036e+01 -2.80064e+01  5.51919e+01             
       H -7.13857e+01 -2.79662e+01  5.55568e+01             
       H -7.23792e+01 -2.80422e+01  5.42025e+01             
       O -8.46050e+01 -1.80055e+01  3.43974e+01             
       H -8.45402e+01 -1.71004e+01  3.40337e+01             
       H -8.37917e+01 -1.81755e+01  3.49994e+01             
       O -7.28994e+01 -2.69893e+01  2.76601e+01             
       H -5.42954e+01 -1.26999e+01  4.65320e+01             
       H -7.25148e+01 -2.61291e+01  2.75363e+01             
       O -8.06198e+01 -2.05898e+01  5.95173e+01             
       H -8.06143e+01 -2.11884e+01  6.02865e+01             
       H -7.96789e+01 -2.04774e+01  5.91798e+01             
       O -8.10609e+01 -1.84867e+01  7.52674e+01             
       H -8.01683e+01 -1.89091e+01  7.50859e+01             
       H -8.09901e+01 -1.77451e+01  7.59293e+01             
