192                                                         
# CELL(abcABC):   12.41850    12.41850    12.41850    90.00000    90.00000    90.00000  Step:           0  Bead:       0 x_centroid{angstrom}  cell{angstrom}   
       O -7.58696e+01 -1.03631e+01  7.09598e+01             
       H -7.59551e+01 -1.05219e+01  6.99698e+01             
       H -7.49018e+01 -1.06016e+01  7.12376e+01             
       O -6.23435e+01 -5.92839e+00  5.64349e+01             
       H -6.43218e+01 -1.68627e+01  5.29062e+01             
       H -6.17501e+01 -5.41286e+00  5.70437e+01             
       O -6.78186e+01 -2.73579e+01  5.09614e+01             
       H -6.74225e+01 -1.44502e+01  5.16916e+01             
       H -6.70979e+01 -2.77228e+01  5.04478e+01             
       O -6.07700e+01 -2.03460e+01  5.53243e+01             
       H -6.00101e+01 -2.05181e+01  5.59093e+01             
       H -6.03097e+01 -2.01964e+01  5.44327e+01             
       O -5.28738e+01 -2.09383e+01  4.83610e+01             
       H -5.20210e+01 -2.04966e+01  4.85341e+01             
       H -5.25113e+01 -2.17600e+01  4.81070e+01             
       O -5.69353e+01 -1.94244e+01  6.35449e+01             
       H -5.62770e+01 -1.99097e+01  6.29915e+01             
       H -5.63615e+01 -1.88229e+01  6.40759e+01             
       O -6.29912e+01 -1.94495e+01  3.67410e+01             
       H -6.21271e+01 -1.93061e+01  3.62899e+01             
       H -5.29979e+01  1.33208e+00  5.21380e+01             
       O -4.74092e+01 -1.71363e+01  6.67995e+01             
       H -4.70486e+01 -1.70804e+01  6.77232e+01             
       H -4.66869e+01 -2.91383e+01  6.63554e+01             
       O -7.02056e+01 -9.54078e+00  4.12367e+01             
       H -6.99014e+01 -8.97017e+00  4.19249e+01             
       H -6.94880e+01 -9.68833e+00  4.05679e+01             
       O -6.73704e+01 -2.36631e+01  4.86320e+01             
       H -6.65324e+01 -2.37931e+01  4.80117e+01             
       H -6.70054e+01 -2.37278e+01  4.95022e+01             
       O -6.87406e+01 -6.27590e+00  5.67314e+01             
       H -6.82564e+01 -6.51640e+00  5.75141e+01             
       H -6.80466e+01 -6.06516e+00  5.60285e+01             
       O -6.51343e+01 -1.18982e+01  4.74713e+01             
       H -6.43842e+01 -1.14557e+01  4.68185e+01             
       H -5.52916e+01 -9.99666e+00  4.32283e+01             
       O -6.15702e+01 -3.12185e+01  4.02626e+01             
       H -6.13536e+01 -3.03471e+01  4.05928e+01             
       H -5.84007e+01 -2.70024e+01  5.92472e+01             
       O -7.07471e+01 -1.79932e+01  4.90409e+01             
       H -7.01843e+01 -1.84958e+01  4.96318e+01             
       H -7.01784e+01 -1.76003e+01  4.83756e+01             
       O -5.68919e+01 -2.37358e+01  5.84893e+01             
       H -5.64014e+01 -2.33623e+01  5.77687e+01             
       H -5.63611e+01 -2.44964e+01  5.87119e+01             
       O -6.40957e+01 -7.33055e+00  5.79895e+01             
       H -6.33673e+01 -6.92040e+00  5.74303e+01             
       H -6.37466e+01 -8.21506e+00  5.82580e+01             
       O -6.32304e+01 -8.31875e+00  3.91671e+01             
       H -6.26117e+01 -2.02111e+01  3.96469e+01             
       H -6.28536e+01 -9.20919e+00  3.90598e+01             
       O -6.39819e+01 -2.35845e+01  4.35569e+01             
       H -6.32122e+01 -2.32105e+01  4.30252e+01             
       H -6.35546e+01 -2.44258e+01  4.37200e+01             
       O -7.02239e+01 -1.21362e+01  5.14614e+01             
       H -6.97934e+01 -1.25213e+01  5.06189e+01             
       H -7.07958e+01 -1.14716e+01  5.11990e+01             
       O -6.48730e+01  7.93764e+00  4.57134e+01             
       H -4.73574e+01 -1.63457e+01  4.97803e+01             
       H -6.40356e+01  8.46865e+00  4.58024e+01             
       O -5.80605e+01 -1.67588e+01  5.69559e+01             
       H -6.13536e+01 -2.22198e+01  5.45540e+01             
       H -6.98968e+01 -1.75902e+01  5.69451e+01             
       O -5.75358e+01 -2.77595e+01  5.35193e+01             
       H -5.68906e+01 -2.82008e+01  5.28972e+01             
       H -5.70842e+01 -2.71170e+01  5.40563e+01             
       O -6.46318e+01 -1.99564e+01  5.39134e+01             
       H -6.38687e+01 -1.99391e+01  5.45112e+01             
       H -6.42951e+01 -2.01403e+01  5.30392e+01             
       O -6.33576e+01 -4.08447e+01  5.46520e+01             
       H -6.28243e+01 -4.15111e+01  5.51195e+01             
       H -6.27290e+01 -4.01443e+01  6.67414e+01             
       O -6.51797e+01 -2.82347e+00  4.96401e+01             
       H -6.46050e+01 -2.03234e+00  4.95845e+01             
       H -6.45620e+01 -3.54153e+00  4.97403e+01             
       O -5.43178e+01 -1.81991e+01  5.47545e+01             
       H -5.38619e+01 -1.74671e+01  5.52340e+01             
       H -5.37010e+01 -1.88799e+01  5.44176e+01             
       O -6.41157e+01 -2.52928e+01  6.45021e+01             
       H -6.33440e+01 -2.54944e+01  6.50199e+01             
       H -6.38313e+01 -2.53621e+01  6.35871e+01             
       O -7.92353e+01 -2.01816e+01  4.58211e+01             
       H -7.91600e+01 -2.05921e+01  4.66702e+01             
       H -7.83666e+01 -1.99869e+01  4.53901e+01             
       O -6.14300e+01 -2.08249e+00  6.06804e+01             
       H -6.09652e+01 -2.60108e+00  6.14366e+01             
       H -6.06005e+01 -1.78826e+00  6.02205e+01             
       O -6.33001e+01 -1.30192e+01  4.91560e+01             
       H -6.25614e+01 -1.36445e+01  4.88307e+01             
       H -6.27833e+01 -1.23001e+01  3.71435e+01             
       O -5.90663e+01 -1.16907e+01  2.98620e+01             
       H -5.83264e+01 -1.22374e+01  2.97427e+01             
       H -7.11275e+01 -1.07836e+01  2.96306e+01             
       O -4.96271e+01 -1.32194e+01  3.15205e+01             
       H -4.98881e+01 -1.39374e+01  3.21164e+01             
       H -4.87579e+01 -1.30128e+01  3.18174e+01             
       O -6.21714e+01 -2.33165e+01  3.88008e+01             
       H -6.19054e+01 -2.31813e+01  3.97165e+01             
       H -6.14307e+01 -2.29513e+01  5.06896e+01             
       O -5.72584e+01 -1.58944e+01  3.47971e+01             
       H -6.55569e+01 -9.66509e+00  4.18420e+01             
       H -5.74183e+01 -1.64378e+01  3.40084e+01             
       O -5.98124e+01 -2.45251e+01  5.71613e+01             
       H -5.90757e+01 -2.48450e+01  5.76726e+01             
       H -5.93715e+01 -2.41564e+01  5.63518e+01             
       O -4.92980e+01 -1.35427e+01  4.11612e+01             
       H -4.84308e+01 -1.38331e+01  4.08379e+01             
       H -4.91497e+01 -1.34026e+01  4.21154e+01             
       O -5.41566e+01 -2.60931e+01  5.30036e+01             
       H -5.32924e+01 -2.57708e+01  5.26981e+01             
       H -5.39870e+01 -2.68832e+01  5.34993e+01             
       O -5.94579e+01 -8.70730e+00  5.91530e+01             
       H -5.91459e+01 -8.66033e+00  5.82341e+01             
       H -5.85964e+01 -8.96919e+00  5.96696e+01             
       O -5.05894e+01  9.67156e+00  7.07648e+01             
       H -4.96748e+01  9.35292e+00  7.07884e+01             
       H -5.06038e+01  9.92977e+00  7.16703e+01             
       O -5.89442e+01 -2.62460e+01  5.95662e+01             
       H -6.26903e+01 -1.98840e+01  3.75522e+01             
       H -5.83556e+01 -2.58774e+01  6.02562e+01             
       O -6.51149e+01 -1.66342e+01  5.23885e+01             
       H -5.63154e+01 -1.57535e+01  3.48351e+01             
       H -6.46492e+01 -1.62934e+01  5.16000e+01             
       O -5.58079e+01 -9.66224e+00  4.40561e+01             
       H -6.45838e+01 -5.41441e+00  4.59070e+01             
       H -5.51922e+01 -9.01859e+00  4.44321e+01             
       O -5.64776e+01 -2.51447e+01  5.45327e+01             
       H -6.84474e+01 -2.56638e+01  6.76997e+01             
       H -4.93123e+01 -6.47201e+00  5.58401e+01             
       O -9.22765e+01 -1.32301e+01  5.86445e+01             
       H -9.15911e+01 -1.25691e+01  5.85799e+01             
       H -9.18564e+01 -1.39197e+01  5.91656e+01             
       O -6.03793e+01 -2.82400e+01  5.02781e+01             
       H -5.98912e+01 -2.77159e+01  5.09693e+01             
       H -5.73665e+01 -1.61361e+01  5.66190e+01             
       O -6.60037e+01 -1.05158e+01  4.20689e+01             
       H -6.53110e+01 -1.10375e+01  4.25829e+01             
       H -7.29958e+01 -2.23651e+01  2.19720e+01             
       O -7.06770e+01 -2.08293e+01  4.39737e+01             
       H -7.01230e+01 -2.00015e+01  4.39462e+01             
       H -6.99204e+01 -2.14637e+01  4.40403e+01             
       O -5.59929e+01 -2.27723e+01  3.90876e+01             
       H -5.64336e+01 -2.36278e+01  3.90889e+01             
       H -5.50265e+01 -2.29184e+01  3.91870e+01             
       O -4.44421e+01 -2.55009e+01  4.92407e+01             
       H -4.38325e+01 -1.37070e+01  4.96958e+01             
       H -4.38031e+01 -2.48559e+01  4.88590e+01             
       O -5.94491e+01 -1.01724e+01  5.05568e+01             
       H -4.63908e+01 -9.98703e+00  4.98592e+01             
       H -5.93683e+01 -9.37265e+00  5.11133e+01             
       O -5.32947e+01  1.95668e+00  5.14836e+01             
       H -6.06728e+01 -3.15927e+01  4.02442e+01             
       H -6.45778e+01 -1.32921e-02  4.80704e+01             
       O -6.68309e+01 -1.57179e+01  4.74558e+01             
       H -6.62209e+01 -1.61008e+01  4.68198e+01             
       H -6.62127e+01 -1.54506e+01  4.81319e+01             
       O -6.30533e+01 -4.40069e+00  3.78306e+01             
       H -6.21309e+01 -1.65950e+01  3.80610e+01             
       H -6.29282e+01 -5.34574e+00  3.75520e+01             
       O -7.17749e+01 -2.02777e+01  5.23305e+01             
       H -7.10351e+01 -1.98391e+01  5.19223e+01             
       H -7.12965e+01 -2.09823e+01  5.28801e+01             
       O -6.08680e+01 -1.66963e+01  5.81233e+01             
       H -5.99399e+01 -1.65526e+01  5.78381e+01             
       H -6.07912e+01 -1.73931e+01  5.87863e+01             
       O -7.42458e+01 -2.30395e+01  4.18603e+01             
       H -7.35803e+01 -2.36828e+01  5.41015e+01             
       H -6.81975e+01 -3.75466e+01  4.14525e+01             
       O -5.53184e+01 -2.08871e+01  6.20652e+01             
       H -5.54098e+01 -2.16324e+01  6.26230e+01             
       H -5.45103e+01 -2.09959e+01  6.14585e+01             
       O -6.05829e+01 -1.88084e+01  4.75646e+01             
       H -5.98311e+01 -1.85863e+01  4.82047e+01             
       H -6.02689e+01 -1.96093e+01  4.71876e+01             
       O -7.82618e+01 -1.60164e+01  5.60011e+01             
       H -7.74866e+01 -1.57321e+01  5.54619e+01             
       H -7.77758e+01 -1.63557e+01  5.69329e+01             
       O -5.74773e+01 -2.21027e+01  4.83174e+01             
       H -5.66958e+01 -2.15645e+01  4.86627e+01             
       H -5.71428e+01 -2.27704e+01  4.77231e+01             
       O -7.18303e+01 -1.42744e+01  2.72759e+01             
       H -7.13561e+01 -1.34778e+01  2.69784e+01             
       H -7.11073e+01 -1.47214e+01  2.77887e+01             
       O -6.10155e+01 -2.32223e+01  2.19366e+01             
       H -4.02270e+01 -1.05110e+01  3.83841e+01             
       H -6.04105e+01 -2.37460e+01  2.14228e+01             
       O -6.81588e+01 -1.74142e+01  5.25880e+01             
       H -6.77718e+01 -1.76995e+01  5.34378e+01             
       H -6.73733e+01 -1.71109e+01  5.21083e+01             
       O -6.81624e+01 -1.48262e+01  6.85693e+01             
       H -6.72802e+01 -1.52788e+01  6.84337e+01             
       H -6.79302e+01 -1.43003e+01  6.93743e+01             
192                                                         
# CELL(abcABC):   12.41850    12.41850    12.41850    90.00000    90.00000    90.00000  Step:      200000  Bead:       0 x_centroid{angstrom}  cell{angstrom}   
       O -8.95209e+01 -1.34160e+01  7.78245e+01             
       H -8.90202e+01 -1.34244e+01  7.69876e+01             
       H -8.88740e+01 -1.35615e+01  7.85646e+01             
       O -7.45340e+01 -8.25933e+00  6.28821e+01             
       H -7.88141e+01 -2.17085e+01  6.01708e+01             
       H -7.40898e+01 -8.02581e+00  6.37259e+01             
       O -7.97926e+01 -3.15258e+01  5.73276e+01             
       H -7.95659e+01 -1.98869e+01  5.79105e+01             
       H -7.92060e+01 -3.07342e+01  5.75317e+01             
       O -7.30164e+01 -2.60663e+01  6.27494e+01             
       H -7.25823e+01 -2.65194e+01  6.34669e+01             
       H -7.23402e+01 -2.54004e+01  6.24140e+01             
       O -6.64201e+01 -2.39767e+01  5.35618e+01             
       H -6.58606e+01 -2.32623e+01  5.38837e+01             
       H -6.57196e+01 -2.46575e+01  5.33393e+01             
       O -6.73017e+01 -2.00841e+01  6.71146e+01             
       H -6.64650e+01 -2.06038e+01  6.71720e+01             
       H -6.72681e+01 -1.97644e+01  6.80528e+01             
       O -7.75481e+01 -2.17890e+01  4.26400e+01             
       H -7.68070e+01 -2.17347e+01  4.19865e+01             
       H -6.20241e+01 -3.12168e+00  5.95559e+01             
       O -5.90279e+01 -2.41816e+01  7.41256e+01             
       H -5.81890e+01 -2.43966e+01  7.36408e+01             
       H -5.86650e+01 -3.62361e+01  7.49494e+01             
       O -7.86349e+01 -1.23693e+01  4.55429e+01             
       H -7.82518e+01 -1.19757e+01  4.63522e+01             
       H -7.77561e+01 -1.28248e+01  4.51533e+01             
       O -8.04472e+01 -2.79946e+01  5.52889e+01             
       H -7.98093e+01 -2.81766e+01  5.45094e+01             
       H -7.99400e+01 -2.75772e+01  5.60590e+01             
       O -8.26512e+01 -1.09452e+01  6.39925e+01             
       H -8.16866e+01 -1.11947e+01  6.37942e+01             
       H -8.26072e+01 -9.96368e+00  6.39586e+01             
       O -7.88851e+01 -1.58669e+01  5.31793e+01             
       H -7.83577e+01 -1.50175e+01  5.31527e+01             
       H -6.85111e+01 -1.40837e+01  4.93079e+01             
       O -7.28648e+01 -3.42455e+01  4.87108e+01             
       H -7.23535e+01 -3.50370e+01  4.89630e+01             
       H -7.31171e+01 -2.86019e+01  6.63907e+01             
       O -8.47104e+01 -2.16411e+01  5.55029e+01             
       H -8.38238e+01 -2.17171e+01  5.58954e+01             
       H -8.45146e+01 -2.14413e+01  5.46051e+01             
       O -7.06306e+01 -2.80335e+01  6.33875e+01             
       H -7.01726e+01 -2.71519e+01  6.33163e+01             
       H -6.97907e+01 -2.85213e+01  6.36393e+01             
       O -7.67289e+01 -9.32674e+00  6.36142e+01             
       H -7.59397e+01 -8.93607e+00  6.31573e+01             
       H -7.62007e+01 -9.81225e+00  6.42781e+01             
       O -7.48517e+01 -1.06678e+01  4.70658e+01             
       H -7.42396e+01 -2.26718e+01  4.77525e+01             
       H -7.41884e+01 -1.13560e+01  4.67915e+01             
       O -7.55278e+01 -2.65693e+01  5.06334e+01             
       H -7.46110e+01 -2.63102e+01  5.05781e+01             
       H -7.54143e+01 -2.74100e+01  5.10227e+01             
       O -8.45963e+01 -1.58419e+01  5.70035e+01             
       H -8.37284e+01 -1.63004e+01  5.70369e+01             
       H -8.43797e+01 -1.49414e+01  5.73969e+01             
       O -7.86228e+01  5.24317e+00  5.16692e+01             
       H -6.14316e+01 -2.00022e+01  5.56394e+01             
       H -7.79118e+01  5.67811e+00  5.22064e+01             
       O -7.06008e+01 -2.04508e+01  6.40375e+01             
       H -7.10851e+01 -2.85030e+01  6.15196e+01             
       H -8.22555e+01 -2.01409e+01  6.46185e+01             
       O -7.10448e+01 -3.29071e+01  5.99101e+01             
       H -7.03310e+01 -3.34397e+01  5.94436e+01             
       H -7.05966e+01 -3.23279e+01  6.06167e+01             
       O -7.71787e+01 -2.41515e+01  6.03454e+01             
       H -7.70131e+01 -2.50608e+01  6.05933e+01             
       H -7.62677e+01 -2.37407e+01  6.02679e+01             
       O -7.54304e+01 -4.32021e+01  6.15528e+01             
       H -7.50222e+01 -4.40543e+01  6.19005e+01             
       H -7.47026e+01 -4.27420e+01  7.33427e+01             
       O -7.79469e+01 -4.64264e+00  5.75231e+01             
       H -7.74676e+01 -4.78671e+00  5.83674e+01             
       H -7.72875e+01 -4.46811e+00  5.68186e+01             
       O -6.60777e+01 -2.24764e+01  6.18454e+01             
       H -6.53107e+01 -2.23265e+01  6.24335e+01             
       H -6.56055e+01 -2.31326e+01  6.12156e+01             
       O -7.75806e+01 -3.10140e+01  7.24941e+01             
       H -7.67460e+01 -3.09852e+01  7.30916e+01             
       H -7.75335e+01 -3.17207e+01  7.18797e+01             
       O -9.25750e+01 -2.38729e+01  5.11621e+01             
       H -9.19889e+01 -2.39949e+01  5.20193e+01             
       H -9.20638e+01 -2.32594e+01  5.05422e+01             
       O -7.58828e+01 -4.94806e+00  6.83538e+01             
       H -7.53506e+01 -5.69674e+00  6.87671e+01             
       H -7.51363e+01 -4.43661e+00  6.79045e+01             
       O -7.66174e+01 -1.40898e+01  5.71110e+01             
       H -7.62185e+01 -1.41696e+01  5.62208e+01             
       H -7.59707e+01 -1.44000e+01  4.53951e+01             
       O -7.10941e+01 -1.32600e+01  3.27733e+01             
       H -7.09379e+01 -1.33453e+01  3.18275e+01             
       H -8.27197e+01 -1.31289e+01  3.33456e+01             
       O -6.25247e+01 -1.71028e+01  3.90617e+01             
       H -6.24890e+01 -1.75771e+01  3.82251e+01             
       H -6.16629e+01 -1.70836e+01  3.94653e+01             
       O -7.31804e+01 -2.50807e+01  4.67082e+01             
       H -7.25795e+01 -2.49686e+01  4.74677e+01             
       H -7.25704e+01 -2.51707e+01  5.83574e+01             
       O -7.10102e+01 -1.85478e+01  4.20632e+01             
       H -7.63816e+01 -1.44316e+01  4.77308e+01             
       H -7.01768e+01 -1.87341e+01  4.15219e+01             
       O -7.23405e+01 -2.94901e+01  6.50820e+01             
       H -7.18220e+01 -2.99694e+01  6.58642e+01             
       H -7.16941e+01 -2.91821e+01  6.45038e+01             
       O -6.13770e+01 -1.70913e+01  4.76592e+01             
       H -6.10408e+01 -1.77424e+01  4.69911e+01             
       H -6.04870e+01 -1.67800e+01  4.80113e+01             
       O -6.64784e+01 -2.85874e+01  6.10039e+01             
       H -6.57119e+01 -2.79173e+01  6.11091e+01             
       H -6.59629e+01 -2.94063e+01  6.06881e+01             
       O -7.34946e+01 -1.15279e+01  6.73178e+01             
       H -7.27513e+01 -1.17697e+01  6.66608e+01             
       H -7.29928e+01 -1.08590e+01  6.78424e+01             
       O -6.46274e+01  7.10781e+00  7.79248e+01             
       H -6.39311e+01  7.34348e+00  7.72400e+01             
       H -6.41642e+01  6.81314e+00  7.87846e+01             
       O -7.36385e+01 -2.82230e+01  6.71474e+01             
       H -7.70922e+01 -2.19607e+01  4.34720e+01             
       H -7.29410e+01 -2.81594e+01  6.79192e+01             
       O -7.89365e+01 -2.12285e+01  5.93301e+01             
       H -7.05358e+01 -1.82064e+01  4.28957e+01             
       H -7.80192e+01 -2.13425e+01  5.88548e+01             
       O -6.88656e+01 -1.35887e+01  5.00167e+01             
       H -7.80807e+01 -7.90711e+00  5.12667e+01             
       H -6.82639e+01 -1.27550e+01  5.01925e+01             
       O -6.89661e+01 -2.84094e+01  5.99265e+01             
       H -8.10420e+01 -2.79097e+01  7.15359e+01             
       H -6.14003e+01 -8.62021e+00  6.23292e+01             
       O -1.05661e+02 -1.68714e+01  6.40582e+01             
       H -1.05016e+02 -1.65629e+01  6.47291e+01             
       H -1.05114e+02 -1.71454e+01  6.33769e+01             
       O -7.44255e+01 -3.22203e+01  5.64304e+01             
       H -7.37360e+01 -3.20018e+01  5.71007e+01             
       H -7.04005e+01 -2.00750e+01  6.31393e+01             
       O -7.70755e+01 -1.42996e+01  4.84043e+01             
       H -7.64449e+01 -1.43706e+01  4.92627e+01             
       H -8.73287e+01 -2.53488e+01  3.00920e+01             
       O -8.40572e+01 -2.47073e+01  5.32783e+01             
       H -8.35090e+01 -2.40667e+01  5.27098e+01             
       H -8.33781e+01 -2.50047e+01  5.39335e+01             
       O -6.72932e+01 -2.72259e+01  4.53781e+01             
       H -6.66929e+01 -2.80433e+01  4.54209e+01             
       H -6.67736e+01 -2.64251e+01  4.54615e+01             
       O -5.73970e+01 -2.99000e+01  5.66709e+01             
       H -5.67055e+01 -1.79794e+01  5.71131e+01             
       H -5.69541e+01 -2.91996e+01  5.62060e+01             
       O -6.95581e+01 -9.40200e+00  5.58638e+01             
       H -5.66446e+01 -1.02882e+01  5.57873e+01             
       H -6.89173e+01 -8.80579e+00  5.53510e+01             
       O -6.25932e+01 -2.39122e+00  5.92069e+01             
       H -7.22636e+01 -3.36246e+01  4.81845e+01             
       H -7.80734e+01 -4.17695e+00  5.31589e+01             
       O -8.13204e+01 -1.91583e+01  5.29615e+01             
       H -8.10861e+01 -1.83165e+01  5.24178e+01             
       H -8.04328e+01 -1.95524e+01  5.32677e+01             
       O -7.63191e+01 -8.98863e+00  4.55690e+01             
       H -7.56570e+01 -2.08663e+01  4.50541e+01             
       H -7.57193e+01 -9.56959e+00  4.60981e+01             
       O -8.17696e+01 -2.44644e+01  5.93489e+01             
       H -8.17937e+01 -2.34966e+01  5.91084e+01             
       H -8.08207e+01 -2.46660e+01  5.93747e+01             
       O -7.29354e+01 -2.01735e+01  6.50699e+01             
       H -7.19872e+01 -2.03226e+01  6.47063e+01             
       H -7.29209e+01 -1.92093e+01  6.52471e+01             
       O -8.36674e+01 -2.91398e+01  4.84147e+01             
       H -8.28382e+01 -2.89486e+01  6.02165e+01             
       H -8.04516e+01 -4.09279e+01  4.79415e+01             
       O -6.78898e+01 -2.40222e+01  6.82018e+01             
       H -6.72193e+01 -2.41449e+01  6.89367e+01             
       H -6.73614e+01 -2.41019e+01  6.73844e+01             
       O -7.51261e+01 -2.20761e+01  5.38505e+01             
       H -7.45713e+01 -2.27988e+01  5.41897e+01             
       H -7.44822e+01 -2.14246e+01  5.35865e+01             
       O -9.23553e+01 -1.89106e+01  6.18735e+01             
       H -9.18615e+01 -1.90027e+01  6.10343e+01             
       H -9.18407e+01 -1.93457e+01  6.26425e+01             
       O -6.97776e+01 -2.58463e+01  5.50521e+01             
       H -6.92573e+01 -2.51520e+01  5.55308e+01             
       H -6.92379e+01 -2.66758e+01  5.50745e+01             
       O -8.49070e+01 -1.90469e+01  3.33460e+01             
       H -8.43672e+01 -1.86468e+01  3.26329e+01             
       H -8.42425e+01 -1.95267e+01  3.40338e+01             
       O -7.53235e+01 -2.62173e+01  3.00160e+01             
       H -4.94739e+01 -1.41342e+01  4.65723e+01             
       H -7.46345e+01 -2.69527e+01  2.98827e+01             
       O -8.14638e+01 -2.18581e+01  5.85303e+01             
       H -8.14201e+01 -2.16955e+01  5.75753e+01             
       H -8.06337e+01 -2.16193e+01  5.89701e+01             
       O -8.24402e+01 -1.89179e+01  7.42095e+01             
       H -8.14681e+01 -1.90036e+01  7.41736e+01             
       H -8.28269e+01 -1.80268e+01  7.39333e+01             
