192                                                         
# CELL(abcABC):   12.41850    12.41850    12.41850    90.00000    90.00000    90.00000  Step:           0  Bead:       0 x_centroid{angstrom}  cell{angstrom}   
       O -7.63128e+01 -1.04684e+01  7.00956e+01             
       H -7.60109e+01 -1.07478e+01  6.91798e+01             
       H -7.53653e+01 -1.02882e+01  7.04678e+01             
       O -6.20352e+01 -6.43428e+00  5.65322e+01             
       H -6.38652e+01 -1.65597e+01  5.35110e+01             
       H -6.14228e+01 -6.11778e+00  5.72382e+01             
       O -6.71620e+01 -2.67721e+01  5.07772e+01             
       H -6.68505e+01 -1.41300e+01  5.16676e+01             
       H -6.63292e+01 -2.67230e+01  5.02412e+01             
       O -6.04645e+01 -2.09020e+01  5.50385e+01             
       H -5.96159e+01 -2.12506e+01  5.53744e+01             
       H -6.02011e+01 -2.03915e+01  5.42203e+01             
       O -5.32176e+01 -1.99750e+01  4.76546e+01             
       H -5.25878e+01 -1.95465e+01  4.82687e+01             
       H -5.30292e+01 -2.09234e+01  4.77618e+01             
       O -5.71150e+01 -1.86582e+01  6.26083e+01             
       H -5.64461e+01 -1.92605e+01  6.22726e+01             
       H -5.65229e+01 -1.79847e+01  6.31034e+01             
       O -6.38521e+01 -1.88540e+01  3.68304e+01             
       H -6.29980e+01 -1.89310e+01  3.63611e+01             
       H -5.25595e+01  1.19370e+00  5.27173e+01             
       O -4.75585e+01 -1.68041e+01  6.67877e+01             
       H -4.70786e+01 -1.71684e+01  6.75052e+01             
       H -4.67980e+01 -2.87786e+01  6.63127e+01             
       O -6.93565e+01 -8.85977e+00  4.09546e+01             
       H -6.88786e+01 -8.24757e+00  4.14736e+01             
       H -6.86982e+01 -9.27956e+00  4.03648e+01             
       O -6.57097e+01 -2.26215e+01  4.93832e+01             
       H -6.52144e+01 -2.31286e+01  4.86879e+01             
       H -6.52079e+01 -2.26554e+01  5.02078e+01             
       O -6.82526e+01 -6.19895e+00  5.54063e+01             
       H -6.75821e+01 -6.45750e+00  5.60564e+01             
       H -6.76931e+01 -5.78787e+00  5.46931e+01             
       O -6.50066e+01 -1.16758e+01  4.72186e+01             
       H -6.46564e+01 -1.12038e+01  4.64924e+01             
       H -5.50758e+01 -1.02013e+01  4.41148e+01             
       O -6.10664e+01 -3.13322e+01  4.01412e+01             
       H -6.08043e+01 -3.06986e+01  4.08428e+01             
       H -5.72930e+01 -2.67351e+01  6.01295e+01             
       O -7.13859e+01 -1.72765e+01  4.87594e+01             
       H -7.07398e+01 -1.78273e+01  4.92153e+01             
       H -7.10069e+01 -1.65557e+01  4.82811e+01             
       O -5.69283e+01 -2.38680e+01  5.83319e+01             
       H -5.64909e+01 -2.31050e+01  5.79165e+01             
       H -5.61697e+01 -2.44509e+01  5.86835e+01             
       O -6.40870e+01 -8.16912e+00  5.64763e+01             
       H -6.33238e+01 -7.62670e+00  5.67237e+01             
       H -6.41431e+01 -9.00117e+00  5.69991e+01             
       O -6.32134e+01 -8.02651e+00  3.94103e+01             
       H -6.25274e+01 -1.99086e+01  3.98408e+01             
       H -6.28752e+01 -8.84641e+00  3.90308e+01             
       O -6.33147e+01 -2.35572e+01  4.27213e+01             
       H -6.29497e+01 -2.27631e+01  4.23160e+01             
       H -6.25797e+01 -2.41517e+01  4.30293e+01             
       O -7.12516e+01 -1.25056e+01  5.05953e+01             
       H -7.03090e+01 -1.22532e+01  5.05566e+01             
       H -7.16991e+01 -1.16827e+01  5.09382e+01             
       O -6.38277e+01  7.60960e+00  4.66324e+01             
       H -4.77571e+01 -1.66954e+01  4.99420e+01             
       H -6.32116e+01  8.34389e+00  4.64465e+01             
       O -5.78259e+01 -1.71920e+01  5.60339e+01             
       H -6.05018e+01 -2.25890e+01  5.38251e+01             
       H -6.95152e+01 -1.78004e+01  5.56577e+01             
       O -5.75904e+01 -2.79647e+01  5.33399e+01             
       H -5.69038e+01 -2.84465e+01  5.28707e+01             
       H -5.70906e+01 -2.73130e+01  5.38588e+01             
       O -6.49859e+01 -2.06147e+01  5.37465e+01             
       H -6.44836e+01 -2.04696e+01  5.45711e+01             
       H -6.43679e+01 -2.05818e+01  5.30017e+01             
       O -6.32450e+01 -4.12908e+01  5.54354e+01             
       H -6.31248e+01 -4.21101e+01  5.58886e+01             
       H -6.23807e+01 -4.09857e+01  6.76357e+01             
       O -6.47647e+01 -1.84391e+00  4.95987e+01             
       H -6.40867e+01 -1.25001e+00  4.92366e+01             
       H -6.42241e+01 -2.65138e+00  4.97864e+01             
       O -5.39685e+01 -1.83547e+01  5.34078e+01             
       H -5.32433e+01 -1.76697e+01  5.32601e+01             
       H -5.34673e+01 -1.92065e+01  5.35951e+01             
       O -6.41966e+01 -2.52647e+01  6.47789e+01             
       H -6.33725e+01 -2.56179e+01  6.51796e+01             
       H -6.42597e+01 -2.55485e+01  6.38764e+01             
       O -7.88878e+01 -1.95418e+01  4.48242e+01             
       H -7.84820e+01 -1.91886e+01  4.56029e+01             
       H -7.80854e+01 -1.99017e+01  4.43775e+01             
       O -6.08764e+01 -1.67064e+00  6.06116e+01             
       H -6.06523e+01 -2.24461e+00  6.13451e+01             
       H -5.99644e+01 -1.36799e+00  6.04004e+01             
       O -6.28376e+01 -1.26105e+01  4.89304e+01             
       H -6.19716e+01 -1.30344e+01  4.86023e+01             
       H -6.26427e+01 -1.18538e+01  3.70235e+01             
       O -5.79328e+01 -1.15566e+01  2.97259e+01             
       H -5.72591e+01 -1.21924e+01  2.98370e+01             
       H -6.98961e+01 -1.08013e+01  2.94358e+01             
       O -4.90927e+01 -1.33210e+01  3.10747e+01             
       H -4.92820e+01 -1.41517e+01  3.15055e+01             
       H -4.82211e+01 -1.29031e+01  3.13399e+01             
       O -6.24274e+01 -2.28468e+01  3.86418e+01             
       H -6.21991e+01 -2.34070e+01  3.93897e+01             
       H -6.16070e+01 -2.25501e+01  5.06143e+01             
       O -5.62503e+01 -1.58145e+01  3.46904e+01             
       H -6.65382e+01 -1.16131e+01  4.25224e+01             
       H -5.60167e+01 -1.55911e+01  3.37763e+01             
       O -5.93974e+01 -2.40914e+01  5.69985e+01             
       H -5.86392e+01 -2.40388e+01  5.76883e+01             
       H -5.88182e+01 -2.39404e+01  5.62212e+01             
       O -4.96716e+01 -1.41976e+01  4.09089e+01             
       H -4.86957e+01 -1.42449e+01  4.05144e+01             
       H -4.93759e+01 -1.38442e+01  4.17732e+01             
       O -5.38217e+01 -2.67237e+01  5.34435e+01             
       H -5.31181e+01 -2.61006e+01  5.30480e+01             
       H -5.33490e+01 -2.75769e+01  5.33954e+01             
       O -5.92360e+01 -8.07415e+00  5.90958e+01             
       H -5.88380e+01 -8.03266e+00  5.82064e+01             
       H -5.86618e+01 -8.53194e+00  5.97169e+01             
       O -4.90136e+01  8.89791e+00  7.02961e+01             
       H -4.83306e+01  8.26794e+00  7.04960e+01             
       H -4.87986e+01  9.62778e+00  7.08680e+01             
       O -5.81242e+01 -2.62753e+01  6.03553e+01             
       H -6.37777e+01 -1.93877e+01  3.76111e+01             
       H -5.78691e+01 -2.56790e+01  6.10434e+01             
       O -6.45141e+01 -1.66129e+01  5.27517e+01             
       H -5.54151e+01 -1.62647e+01  3.50922e+01             
       H -6.39745e+01 -1.64386e+01  5.19487e+01             
       O -5.57434e+01 -9.53079e+00  4.44710e+01             
       H -6.33167e+01 -5.60938e+00  4.66465e+01             
       H -5.51139e+01 -8.86411e+00  4.48797e+01             
       O -5.61488e+01 -2.61035e+01  5.46202e+01             
       H -6.83751e+01 -2.65158e+01  6.79475e+01             
       H -4.89951e+01 -6.99470e+00  5.61330e+01             
       O -9.22758e+01 -1.29245e+01  5.93769e+01             
       H -9.13146e+01 -1.26530e+01  5.94511e+01             
       H -9.24136e+01 -1.37951e+01  5.97155e+01             
       O -6.07935e+01 -2.85367e+01  5.05201e+01             
       H -6.03156e+01 -2.82949e+01  5.13497e+01             
       H -5.73237e+01 -1.63736e+01  5.61257e+01             
       O -6.66959e+01 -1.17264e+01  4.34633e+01             
       H -6.58543e+01 -1.20924e+01  4.37688e+01             
       H -7.34343e+01 -2.19378e+01  2.14089e+01             
       O -7.05868e+01 -2.08257e+01  4.40089e+01             
       H -7.05042e+01 -1.99392e+01  4.35936e+01             
       H -6.97207e+01 -2.12898e+01  4.40639e+01             
       O -5.53226e+01 -2.23207e+01  3.91910e+01             
       H -5.56005e+01 -2.32075e+01  3.89068e+01             
       H -5.44184e+01 -2.24089e+01  3.96532e+01             
       O -4.37857e+01 -2.46637e+01  5.02336e+01             
       H -4.32721e+01 -1.29838e+01  5.05561e+01             
       H -4.32237e+01 -2.43053e+01  4.96056e+01             
       O -6.06976e+01 -9.16703e+00  4.94966e+01             
       H -4.76674e+01 -9.82206e+00  4.89950e+01             
       H -5.99749e+01 -8.73113e+00  5.00023e+01             
       O -5.33282e+01  1.68213e+00  5.30583e+01             
       H -6.02208e+01 -3.16673e+01  3.97864e+01             
       H -6.42328e+01  3.23013e-01  4.76119e+01             
       O -6.61556e+01 -1.63385e+01  4.80569e+01             
       H -6.54702e+01 -1.69170e+01  4.76465e+01             
       H -6.56315e+01 -1.55785e+01  4.83627e+01             
       O -6.32342e+01 -3.84200e+00  3.77876e+01             
       H -6.22188e+01 -1.61828e+01  3.80121e+01             
       H -6.34310e+01 -4.67184e+00  3.73233e+01             
       O -7.13193e+01 -2.03108e+01  5.14271e+01             
       H -7.07761e+01 -1.97890e+01  5.08164e+01             
       H -7.06935e+01 -2.05634e+01  5.21851e+01             
       O -5.93240e+01 -1.77653e+01  5.82427e+01             
       H -5.86663e+01 -1.75716e+01  5.75123e+01             
       H -5.88388e+01 -1.82003e+01  5.89126e+01             
       O -7.30711e+01 -2.33555e+01  4.08699e+01             
       H -7.22712e+01 -2.38714e+01  5.35818e+01             
       H -6.77666e+01 -3.85446e+01  4.17055e+01             
       O -5.55959e+01 -2.06527e+01  6.14898e+01             
       H -5.51276e+01 -2.11478e+01  6.21599e+01             
       H -5.49006e+01 -2.01913e+01  6.10104e+01             
       O -6.14528e+01 -1.89511e+01  4.78174e+01             
       H -6.08029e+01 -1.83060e+01  4.80822e+01             
       H -6.09068e+01 -1.97261e+01  4.75868e+01             
       O -7.79637e+01 -1.56755e+01  5.69026e+01             
       H -7.73070e+01 -1.56853e+01  5.61996e+01             
       H -7.75322e+01 -1.62009e+01  5.75838e+01             
       O -5.77935e+01 -2.22316e+01  4.82477e+01             
       H -5.69905e+01 -2.17550e+01  4.83822e+01             
       H -5.76485e+01 -2.28699e+01  4.75308e+01             
       O -7.20080e+01 -1.42204e+01  2.75542e+01             
       H -7.16283e+01 -1.36341e+01  2.68687e+01             
       H -7.12268e+01 -1.47245e+01  2.79553e+01             
       O -6.13658e+01 -2.27455e+01  2.09998e+01             
       H -4.05495e+01 -9.91697e+00  4.10254e+01             
       H -6.06272e+01 -2.32152e+01  2.05901e+01             
       O -6.81018e+01 -1.70309e+01  5.16109e+01             
       H -6.75532e+01 -1.77294e+01  5.20138e+01             
       H -6.75597e+01 -1.62667e+01  5.12976e+01             
       O -6.80002e+01 -1.47722e+01  6.93833e+01             
       H -6.70672e+01 -1.50803e+01  6.93805e+01             
       H -6.79927e+01 -1.39364e+01  6.98863e+01             
192                                                         
# CELL(abcABC):   12.41850    12.41850    12.41850    90.00000    90.00000    90.00000  Step:      200000  Bead:       0 x_centroid{angstrom}  cell{angstrom}   
       O -8.85210e+01 -1.18151e+01  7.77445e+01             
       H -8.79767e+01 -1.10340e+01  7.80412e+01             
       H -8.77281e+01 -1.24174e+01  7.75527e+01             
       O -7.31611e+01 -9.53845e+00  6.15315e+01             
       H -7.65991e+01 -1.91142e+01  5.94686e+01             
       H -7.30178e+01 -8.67481e+00  6.19199e+01             
       O -7.98052e+01 -3.34683e+01  5.78581e+01             
       H -7.94812e+01 -2.01487e+01  5.80469e+01             
       H -7.89891e+01 -3.38011e+01  5.73617e+01             
       O -7.14941e+01 -2.38841e+01  6.24528e+01             
       H -7.10772e+01 -2.36524e+01  6.33467e+01             
       H -7.07549e+01 -2.39294e+01  6.17771e+01             
       O -6.50707e+01 -2.18242e+01  5.63914e+01             
       H -6.46538e+01 -2.10463e+01  5.60051e+01             
       H -6.43420e+01 -2.24137e+01  5.66288e+01             
       O -6.94363e+01 -2.22733e+01  6.88267e+01             
       H -6.87210e+01 -2.28580e+01  6.84704e+01             
       H -6.90240e+01 -2.18958e+01  6.96742e+01             
       O -7.84297e+01 -2.35639e+01  4.17382e+01             
       H -7.80932e+01 -2.30108e+01  4.23889e+01             
       H -6.53466e+01 -1.69183e+00  5.93394e+01             
       O -6.05011e+01 -1.91959e+01  7.20638e+01             
       H -6.02682e+01 -1.83292e+01  7.16659e+01             
       H -5.96417e+01 -3.19360e+01  7.25025e+01             
       O -8.24381e+01 -1.18180e+01  4.75006e+01             
       H -8.18444e+01 -1.10072e+01  4.76962e+01             
       H -8.18594e+01 -1.26285e+01  4.76492e+01             
       O -7.93150e+01 -2.64221e+01  5.63135e+01             
       H -7.84955e+01 -2.67475e+01  5.58525e+01             
       H -7.91751e+01 -2.61389e+01  5.72442e+01             
       O -7.98327e+01 -9.73297e+00  6.45249e+01             
       H -7.92349e+01 -1.00310e+01  6.52361e+01             
       H -7.93709e+01 -9.66349e+00  6.36995e+01             
       O -7.72967e+01 -1.48052e+01  5.44171e+01             
       H -7.68538e+01 -1.40615e+01  5.39360e+01             
       H -6.62857e+01 -1.47897e+01  5.04456e+01             
       O -7.35224e+01 -3.46358e+01  4.60489e+01             
       H -7.35798e+01 -3.43404e+01  4.70202e+01             
       H -7.04480e+01 -2.94988e+01  6.40648e+01             
       O -8.31137e+01 -2.07178e+01  5.47081e+01             
       H -8.26190e+01 -2.11604e+01  5.55715e+01             
       H -8.23448e+01 -2.06181e+01  5.40183e+01             
       O -6.84766e+01 -2.71277e+01  6.50229e+01             
       H -6.79035e+01 -2.67545e+01  6.42748e+01             
       H -6.79130e+01 -2.77947e+01  6.55132e+01             
       O -7.54066e+01 -1.18074e+01  6.16514e+01             
       H -7.48298e+01 -1.10418e+01  6.19235e+01             
       H -7.47335e+01 -1.25274e+01  6.18657e+01             
       O -7.54449e+01 -1.10468e+01  4.45853e+01             
       H -7.48739e+01 -2.28772e+01  4.51945e+01             
       H -7.47095e+01 -1.15932e+01  4.41906e+01             
       O -7.55616e+01 -2.83263e+01  5.13313e+01             
       H -7.51327e+01 -2.76860e+01  5.19130e+01             
       H -7.51157e+01 -2.92048e+01  5.16122e+01             
       O -8.48977e+01 -1.38612e+01  5.43189e+01             
       H -8.49069e+01 -1.48776e+01  5.44856e+01             
       H -8.38363e+01 -1.34132e+01  5.41615e+01             
       O -7.63812e+01  4.68913e+00  5.25706e+01             
       H -5.91746e+01 -1.93517e+01  5.51600e+01             
       H -7.55734e+01  5.25187e+00  5.24533e+01             
       O -6.98518e+01 -1.88435e+01  6.37694e+01             
       H -7.28139e+01 -2.66343e+01  6.22964e+01             
       H -8.16805e+01 -1.91485e+01  6.45229e+01             
       O -7.02596e+01 -3.22826e+01  5.99102e+01             
       H -6.97821e+01 -3.31028e+01  6.00788e+01             
       H -6.97350e+01 -3.15857e+01  6.02264e+01             
       O -7.71515e+01 -2.36217e+01  5.92265e+01             
       H -7.64278e+01 -2.37375e+01  5.98969e+01             
       H -7.67209e+01 -2.36538e+01  5.83369e+01             
       O -7.53922e+01 -4.36476e+01  6.07699e+01             
       H -7.44745e+01 -4.39260e+01  6.03746e+01             
       H -7.53469e+01 -4.26873e+01  7.33318e+01             
       O -7.62713e+01 -6.32862e+00  5.62178e+01             
       H -7.58332e+01 -5.45558e+00  5.60489e+01             
       H -7.53904e+01 -6.90307e+00  5.62672e+01             
       O -6.63029e+01 -2.23621e+01  6.20798e+01             
       H -6.56887e+01 -2.16141e+01  6.21008e+01             
       H -6.58322e+01 -2.31850e+01  6.23526e+01             
       O -7.63752e+01 -2.73300e+01  7.20169e+01             
       H -7.56436e+01 -2.74107e+01  7.12607e+01             
       H -7.57967e+01 -2.76271e+01  7.28112e+01             
       O -8.99803e+01 -2.45251e+01  5.07304e+01             
       H -8.94727e+01 -2.43252e+01  5.15644e+01             
       H -8.92224e+01 -2.43797e+01  5.00147e+01             
       O -7.25910e+01 -4.24514e+00  6.63267e+01             
       H -7.22837e+01 -4.74177e+00  6.71050e+01             
       H -7.19365e+01 -4.43376e+00  6.56238e+01             
       O -7.53694e+01 -1.62849e+01  5.56199e+01             
       H -7.46124e+01 -1.64771e+01  5.50454e+01             
       H -7.49528e+01 -1.58860e+01  4.40432e+01             
       O -7.01867e+01 -1.57703e+01  3.53803e+01             
       H -6.94828e+01 -1.65675e+01  3.53389e+01             
       H -8.19216e+01 -1.50151e+01  3.53556e+01             
       O -6.22803e+01 -1.61047e+01  3.63552e+01             
       H -6.25769e+01 -1.61303e+01  3.73301e+01             
       H -6.13428e+01 -1.59252e+01  3.63579e+01             
       O -7.42256e+01 -2.76447e+01  4.54170e+01             
       H -7.34081e+01 -2.82235e+01  4.56832e+01             
       H -7.39294e+01 -2.67742e+01  5.73932e+01             
       O -6.85684e+01 -2.02320e+01  4.08562e+01             
       H -7.85425e+01 -1.68872e+01  5.14940e+01             
       H -6.78004e+01 -1.97697e+01  4.13363e+01             
       O -7.21035e+01 -2.81148e+01  6.20942e+01             
       H -7.14935e+01 -2.80375e+01  6.28929e+01             
       H -7.13051e+01 -2.82396e+01  6.14691e+01             
       O -5.96039e+01 -1.65369e+01  4.62516e+01             
       H -5.89939e+01 -1.70248e+01  4.56724e+01             
       H -5.89755e+01 -1.60586e+01  4.68363e+01             
       O -6.62017e+01 -2.90753e+01  5.87588e+01             
       H -6.55744e+01 -2.84648e+01  5.92018e+01             
       H -6.56983e+01 -2.99537e+01  5.87360e+01             
       O -7.24775e+01 -9.25725e+00  6.55779e+01             
       H -7.18832e+01 -8.91040e+00  6.63236e+01             
       H -7.18761e+01 -9.75053e+00  6.51023e+01             
       O -6.20471e+01  6.74087e+00  7.70533e+01             
       H -6.12543e+01  6.48675e+00  7.64978e+01             
       H -6.15123e+01  7.19590e+00  7.77793e+01             
       O -7.07319e+01 -2.86417e+01  6.43267e+01             
       H -7.76038e+01 -2.39638e+01  4.13911e+01             
       H -6.99325e+01 -2.81072e+01  6.45720e+01             
       O -7.73788e+01 -1.89982e+01  5.88380e+01             
       H -6.81554e+01 -2.10107e+01  4.03327e+01             
       H -7.67741e+01 -1.90132e+01  5.80090e+01             
       O -6.69008e+01 -1.40361e+01  5.05048e+01             
       H -7.60620e+01 -8.45433e+00  5.31311e+01             
       H -6.62749e+01 -1.32010e+01  5.05297e+01             
       O -6.83260e+01 -3.01976e+01  6.02004e+01             
       H -8.02586e+01 -3.06149e+01  7.34225e+01             
       H -6.00767e+01 -1.01887e+01  6.18873e+01             
       O -1.03973e+02 -1.67123e+01  6.60883e+01             
       H -1.03195e+02 -1.61862e+01  6.63886e+01             
       H -1.03707e+02 -1.75653e+01  6.64894e+01             
       O -7.20428e+01 -3.10573e+01  5.57273e+01             
       H -7.13827e+01 -3.10342e+01  5.64604e+01             
       H -6.92392e+01 -1.89118e+01  6.30061e+01             
       O -7.80375e+01 -1.66033e+01  5.07241e+01             
       H -7.71122e+01 -1.63338e+01  5.10419e+01             
       H -8.61400e+01 -2.63163e+01  2.84030e+01             
       O -8.24625e+01 -2.31904e+01  5.21952e+01             
       H -8.15482e+01 -2.31165e+01  5.17965e+01             
       H -8.23317e+01 -2.39294e+01  5.28098e+01             
       O -6.82146e+01 -2.64052e+01  4.79775e+01             
       H -6.73900e+01 -2.62440e+01  4.73938e+01             
       H -6.77177e+01 -2.65404e+01  4.88517e+01             
       O -5.56029e+01 -2.93916e+01  5.66379e+01             
       H -5.54908e+01 -1.65433e+01  5.57695e+01             
       H -5.49376e+01 -2.90766e+01  5.72836e+01             
       O -7.33602e+01 -1.28159e+01  5.65431e+01             
       H -6.05823e+01 -1.31564e+01  5.56853e+01             
       H -7.26219e+01 -1.23464e+01  5.69899e+01             
       O -6.61849e+01 -1.15700e+00  5.90223e+01             
       H -7.26480e+01 -3.51189e+01  4.58710e+01             
       H -7.65559e+01 -2.95727e+00  5.48204e+01             
       O -7.83811e+01 -1.92552e+01  5.42466e+01             
       H -7.77494e+01 -1.94003e+01  5.35384e+01             
       H -7.77801e+01 -1.90740e+01  5.50482e+01             
       O -7.41434e+01 -7.63774e+00  4.39567e+01             
       H -7.31897e+01 -1.95998e+01  4.37711e+01             
       H -7.39760e+01 -8.13344e+00  4.47641e+01             
       O -8.37605e+01 -2.35772e+01  5.77608e+01             
       H -8.30743e+01 -2.32071e+01  5.71818e+01             
       H -8.32917e+01 -2.39726e+01  5.86230e+01             
       O -7.26313e+01 -1.85138e+01  6.28476e+01             
       H -7.23721e+01 -1.77897e+01  6.22607e+01             
       H -7.16742e+01 -1.88572e+01  6.30618e+01             
       O -8.58030e+01 -2.58150e+01  5.01500e+01             
       H -8.50614e+01 -2.51243e+01  6.24251e+01             
       H -7.99415e+01 -4.22255e+01  4.72914e+01             
       O -6.82637e+01 -2.44861e+01  6.78133e+01             
       H -6.76481e+01 -2.52447e+01  6.82197e+01             
       H -6.76748e+01 -2.42008e+01  6.70972e+01             
       O -7.48667e+01 -2.21323e+01  5.38503e+01             
       H -7.49144e+01 -2.19816e+01  5.47590e+01             
       H -7.39223e+01 -2.18728e+01  5.35456e+01             
       O -8.96790e+01 -2.01377e+01  6.22811e+01             
       H -8.88991e+01 -1.97599e+01  6.18611e+01             
       H -8.94911e+01 -2.01164e+01  6.32782e+01             
       O -7.01578e+01 -2.54044e+01  5.38018e+01             
       H -6.95827e+01 -2.51351e+01  5.45914e+01             
       H -6.95629e+01 -2.60560e+01  5.33281e+01             
       O -8.26298e+01 -1.81527e+01  3.25700e+01             
       H -8.18662e+01 -1.75603e+01  3.22095e+01             
       H -8.22416e+01 -1.87312e+01  3.32089e+01             
       O -7.44262e+01 -2.62783e+01  2.77194e+01             
       H -5.34325e+01 -1.26460e+01  4.68386e+01             
       H -7.38986e+01 -2.60967e+01  2.68161e+01             
       O -8.07286e+01 -2.21535e+01  6.02200e+01             
       H -8.00280e+01 -2.23086e+01  6.08863e+01             
       H -8.02828e+01 -2.19772e+01  5.93805e+01             
       O -7.97538e+01 -1.88275e+01  7.47998e+01             
       H -7.91699e+01 -1.95494e+01  7.44868e+01             
       H -7.91528e+01 -1.80937e+01  7.50462e+01             
