192                                                         
# CELL(abcABC):   12.41850    12.41850    12.41850    90.00000    90.00000    90.00000  Step:           0  Bead:       0 x_centroid{angstrom}  cell{angstrom}   
       O -7.40614e+01 -1.06164e+01  6.72900e+01             
       H -7.35546e+01 -1.14153e+01  6.71884e+01             
       H -7.34066e+01 -9.91478e+00  6.75387e+01             
       O -6.08392e+01 -7.01674e+00  5.73568e+01             
       H -6.34481e+01 -1.60228e+01  5.23969e+01             
       H -6.01496e+01 -6.48812e+00  5.69191e+01             
       O -6.64147e+01 -2.67481e+01  4.94096e+01             
       H -6.61728e+01 -1.40581e+01  5.02981e+01             
       H -6.55989e+01 -2.67983e+01  4.88766e+01             
       O -5.98541e+01 -2.09063e+01  5.50934e+01             
       H -5.90111e+01 -2.10327e+01  5.54792e+01             
       H -6.02640e+01 -2.03859e+01  5.58026e+01             
       O -5.25757e+01 -2.01686e+01  4.81132e+01             
       H -5.18981e+01 -1.96051e+01  4.84860e+01             
       H -5.22196e+01 -2.10521e+01  4.83795e+01             
       O -5.64090e+01 -1.83458e+01  6.28229e+01             
       H -5.59831e+01 -1.91734e+01  6.24787e+01             
       H -5.56491e+01 -1.78696e+01  6.32508e+01             
       O -6.27805e+01 -1.86368e+01  3.68110e+01             
       H -6.20435e+01 -1.89547e+01  3.62255e+01             
       H -5.11956e+01  2.34292e+00  5.20261e+01             
       O -4.53366e+01 -1.50954e+01  6.65564e+01             
       H -4.47654e+01 -1.53042e+01  6.73419e+01             
       H -4.47604e+01 -2.72072e+01  6.58059e+01             
       O -6.79421e+01 -9.23044e+00  4.07808e+01             
       H -6.76530e+01 -9.12217e+00  4.16933e+01             
       H -6.71550e+01 -9.34723e+00  4.03237e+01             
       O -6.41807e+01 -2.26029e+01  4.90447e+01             
       H -6.36425e+01 -2.31340e+01  4.84301e+01             
       H -6.37118e+01 -2.25274e+01  4.98974e+01             
       O -6.84260e+01 -5.90707e+00  5.61010e+01             
       H -6.78259e+01 -6.12813e+00  5.68750e+01             
       H -6.77104e+01 -5.69702e+00  5.54307e+01             
       O -6.31665e+01 -1.04325e+01  4.46506e+01             
       H -6.25602e+01 -1.03852e+01  4.54201e+01             
       H -5.37093e+01 -1.02117e+01  4.32263e+01             
       O -5.93925e+01 -2.95164e+01  4.10161e+01             
       H -5.86286e+01 -2.88945e+01  4.12354e+01             
       H -5.69948e+01 -2.61260e+01  5.71726e+01             
       O -7.05633e+01 -1.70437e+01  4.91035e+01             
       H -6.97988e+01 -1.75020e+01  4.96249e+01             
       H -7.01731e+01 -1.69294e+01  4.81721e+01             
       O -5.51956e+01 -2.36558e+01  5.81163e+01             
       H -5.49724e+01 -2.30136e+01  5.74421e+01             
       H -5.43272e+01 -2.39699e+01  5.82906e+01             
       O -6.36058e+01 -7.62315e+00  5.67802e+01             
       H -6.27252e+01 -7.32945e+00  5.70446e+01             
       H -6.35462e+01 -8.58810e+00  5.69075e+01             
       O -6.19413e+01 -6.48138e+00  3.94365e+01             
       H -6.14565e+01 -1.80570e+01  3.94631e+01             
       H -6.11835e+01 -7.15738e+00  3.95604e+01             
       O -6.34103e+01 -2.57592e+01  4.25121e+01             
       H -6.29128e+01 -2.54922e+01  4.16778e+01             
       H -6.26307e+01 -2.57499e+01  4.32068e+01             
       O -7.06305e+01 -1.21520e+01  4.92457e+01             
       H -6.98696e+01 -1.27569e+01  4.92684e+01             
       H -7.01726e+01 -1.14514e+01  4.87345e+01             
       O -6.29819e+01  7.94259e+00  4.52918e+01             
       H -4.66953e+01 -1.57912e+01  4.92349e+01             
       H -6.32960e+01  8.50168e+00  4.59871e+01             
       O -5.61541e+01 -1.52735e+01  5.63459e+01             
       H -6.00062e+01 -2.11106e+01  5.30535e+01             
       H -6.86483e+01 -1.60697e+01  5.68517e+01             
       O -5.61610e+01 -2.64507e+01  5.24477e+01             
       H -5.55033e+01 -2.71195e+01  5.21625e+01             
       H -5.56956e+01 -2.58013e+01  5.30738e+01             
       O -6.41277e+01 -1.97768e+01  5.38557e+01             
       H -6.35924e+01 -1.98223e+01  5.46771e+01             
       H -6.35802e+01 -1.92726e+01  5.32468e+01             
       O -6.22312e+01 -4.06390e+01  5.36693e+01             
       H -6.14591e+01 -4.12635e+01  5.36209e+01             
       H -6.18520e+01 -3.97957e+01  6.62697e+01             
       O -6.41304e+01 -2.68276e+00  4.78190e+01             
       H -6.37078e+01 -1.81109e+00  4.76032e+01             
       H -6.34937e+01 -3.11748e+00  4.84667e+01             
       O -5.39313e+01 -1.80923e+01  5.46334e+01             
       H -5.33454e+01 -1.74302e+01  5.50040e+01             
       H -5.33487e+01 -1.87814e+01  5.42367e+01             
       O -6.21031e+01 -2.28957e+01  6.35126e+01             
       H -6.13516e+01 -2.22855e+01  6.37495e+01             
       H -6.16998e+01 -2.33379e+01  6.27085e+01             
       O -7.82902e+01 -1.93082e+01  4.55431e+01             
       H -7.80800e+01 -1.97755e+01  4.63633e+01             
       H -7.74046e+01 -1.92648e+01  4.51159e+01             
       O -5.94207e+01 -1.41615e+00  5.89780e+01             
       H -5.92799e+01 -1.79685e+00  5.98988e+01             
       H -5.85827e+01 -1.00366e+00  5.87665e+01             
       O -6.26269e+01 -1.27200e+01  4.68209e+01             
       H -6.21386e+01 -1.30663e+01  4.60943e+01             
       H -6.19199e+01 -1.25701e+01  3.50859e+01             
       O -5.71434e+01 -1.08849e+01  3.00093e+01             
       H -5.63218e+01 -1.13670e+01  3.00384e+01             
       H -6.94749e+01 -1.05365e+01  2.90997e+01             
       O -4.90374e+01 -1.33119e+01  3.17095e+01             
       H -4.86727e+01 -1.42487e+01  3.17905e+01             
       H -4.83218e+01 -1.26366e+01  3.16219e+01             
       O -6.09670e+01 -2.40478e+01  3.64016e+01             
       H -6.00938e+01 -2.44457e+01  3.66029e+01             
       H -6.07974e+01 -2.35334e+01  4.80541e+01             
       O -5.68429e+01 -1.67431e+01  3.44171e+01             
       H -6.48198e+01 -1.09978e+01  4.15217e+01             
       H -5.65229e+01 -1.58849e+01  3.47103e+01             
       O -5.92472e+01 -2.41026e+01  5.65295e+01             
       H -5.84787e+01 -2.46768e+01  5.67354e+01             
       H -5.89633e+01 -2.37034e+01  5.56945e+01             
       O -4.77569e+01 -1.32722e+01  4.15488e+01             
       H -4.73484e+01 -1.31295e+01  4.06561e+01             
       H -4.70557e+01 -1.39602e+01  4.18972e+01             
       O -5.32876e+01 -2.60040e+01  5.21503e+01             
       H -5.28176e+01 -2.52308e+01  5.24717e+01             
       H -5.26827e+01 -2.68065e+01  5.22606e+01             
       O -5.86161e+01 -8.83782e+00  5.90949e+01             
       H -5.83801e+01 -8.69285e+00  5.81295e+01             
       H -5.78046e+01 -9.28663e+00  5.93908e+01             
       O -4.79943e+01  8.99479e+00  6.98171e+01             
       H -4.73413e+01  8.46928e+00  6.93655e+01             
       H -4.76064e+01  9.70820e+00  7.04143e+01             
       O -5.71970e+01 -2.54402e+01  5.77879e+01             
       H -6.24222e+01 -1.88725e+01  3.77124e+01             
       H -5.64863e+01 -2.47765e+01  5.78526e+01             
       O -6.40933e+01 -1.58696e+01  5.17305e+01             
       H -5.60490e+01 -1.72365e+01  3.43792e+01             
       H -6.35934e+01 -1.57791e+01  5.09619e+01             
       O -5.42087e+01 -9.42767e+00  4.34850e+01             
       H -6.19664e+01 -4.24649e+00  4.51564e+01             
       H -5.34944e+01 -8.80388e+00  4.38410e+01             
       O -5.51344e+01 -2.50224e+01  5.44523e+01             
       H -6.71902e+01 -2.57233e+01  6.74255e+01             
       H -4.79695e+01 -7.28943e+00  5.81664e+01             
       O -8.99627e+01 -1.22250e+01  5.78185e+01             
       H -8.92506e+01 -1.16332e+01  5.74156e+01             
       H -8.94947e+01 -1.25318e+01  5.85904e+01             
       O -5.98333e+01 -2.75291e+01  4.94253e+01             
       H -5.95131e+01 -2.71523e+01  5.03523e+01             
       H -5.52142e+01 -1.48833e+01  5.63414e+01             
       O -6.53076e+01 -1.14223e+01  4.22300e+01             
       H -6.46842e+01 -1.21286e+01  4.26003e+01             
       H -7.26985e+01 -2.20120e+01  2.18049e+01             
       O -6.98370e+01 -2.10526e+01  4.38261e+01             
       H -6.90866e+01 -2.04074e+01  4.37713e+01             
       H -6.94250e+01 -2.18733e+01  4.35585e+01             
       O -5.42303e+01 -2.26693e+01  3.81986e+01             
       H -5.41905e+01 -2.36328e+01  3.78971e+01             
       H -5.34174e+01 -2.25630e+01  3.87415e+01             
       O -4.41016e+01 -2.66416e+01  4.86953e+01             
       H -4.30768e+01 -1.43555e+01  4.88193e+01             
       H -4.44091e+01 -2.72267e+01  4.93282e+01             
       O -5.76754e+01 -9.72036e+00  5.12622e+01             
       H -4.47877e+01 -9.88430e+00  5.04415e+01             
       H -5.70300e+01 -9.46053e+00  5.19100e+01             
       O -5.19972e+01  2.59412e+00  5.24089e+01             
       H -5.90015e+01 -3.02706e+01  4.06476e+01             
       H -6.25693e+01  1.73451e+00  4.38864e+01             
       O -6.63787e+01 -1.72588e+01  4.75970e+01             
       H -6.58174e+01 -1.77062e+01  4.70422e+01             
       H -6.59075e+01 -1.63941e+01  4.76638e+01             
       O -6.23369e+01 -3.58724e+00  3.70949e+01             
       H -6.14576e+01 -1.56001e+01  3.70091e+01             
       H -6.22417e+01 -4.57624e+00  3.69154e+01             
       O -7.03961e+01 -1.91477e+01  5.24843e+01             
       H -6.98065e+01 -1.90401e+01  5.16726e+01             
       H -6.98106e+01 -1.95538e+01  5.31505e+01             
       O -5.89033e+01 -1.78941e+01  5.62045e+01             
       H -5.89296e+01 -1.77235e+01  5.52283e+01             
       H -5.79917e+01 -1.80593e+01  5.64070e+01             
       O -7.25863e+01 -2.10848e+01  3.96761e+01             
       H -7.17331e+01 -2.12227e+01  5.16509e+01             
       H -6.66997e+01 -3.69823e+01  4.20363e+01             
       O -5.49478e+01 -2.03701e+01  6.16842e+01             
       H -5.45030e+01 -2.10814e+01  6.22323e+01             
       H -5.41928e+01 -1.99276e+01  6.12870e+01             
       O -6.00657e+01 -1.93873e+01  4.83903e+01             
       H -5.95610e+01 -1.86037e+01  4.87229e+01             
       H -5.94179e+01 -2.00325e+01  4.80992e+01             
       O -7.68625e+01 -1.62772e+01  5.54065e+01             
       H -7.60650e+01 -1.61163e+01  5.48421e+01             
       H -7.64688e+01 -1.63006e+01  5.63032e+01             
       O -5.65470e+01 -2.24118e+01  4.77403e+01             
       H -5.59860e+01 -2.18816e+01  4.82545e+01             
       H -5.60382e+01 -2.29429e+01  4.70216e+01             
       O -7.12847e+01 -1.36423e+01  2.66961e+01             
       H -7.12897e+01 -1.29402e+01  2.60589e+01             
       H -7.03344e+01 -1.37747e+01  2.69926e+01             
       O -6.08705e+01 -2.27350e+01  2.14511e+01             
       H -3.94537e+01 -8.99600e+00  4.05005e+01             
       H -6.02695e+01 -2.33165e+01  2.09552e+01             
       O -6.68855e+01 -1.71839e+01  5.19618e+01             
       H -6.66151e+01 -1.74365e+01  5.28736e+01             
       H -6.60760e+01 -1.69711e+01  5.14673e+01             
       O -6.61342e+01 -1.43035e+01  6.85818e+01             
       H -6.54362e+01 -1.49163e+01  6.82219e+01             
       H -6.56429e+01 -1.37675e+01  6.92493e+01             
192                                                         
# CELL(abcABC):   12.41850    12.41850    12.41850    90.00000    90.00000    90.00000  Step:      200000  Bead:       0 x_centroid{angstrom}  cell{angstrom}   
       O -8.44542e+01 -1.25115e+01  7.36963e+01             
       H -8.36740e+01 -1.30132e+01  7.39132e+01             
       H -8.41183e+01 -1.15891e+01  7.35560e+01             
       O -7.27601e+01 -7.98164e+00  6.14845e+01             
       H -7.65284e+01 -2.19463e+01  5.75243e+01             
       H -7.21977e+01 -8.82657e+00  6.12442e+01             
       O -7.82039e+01 -2.91393e+01  5.61990e+01             
       H -7.74885e+01 -1.66943e+01  5.69227e+01             
       H -7.77929e+01 -2.96996e+01  5.54487e+01             
       O -7.11850e+01 -2.24825e+01  6.11682e+01             
       H -7.05853e+01 -2.22548e+01  6.19037e+01             
       H -7.06791e+01 -2.20538e+01  6.04005e+01             
       O -6.33956e+01 -2.46606e+01  5.37871e+01             
       H -6.27662e+01 -2.39538e+01  5.41521e+01             
       H -6.29113e+01 -2.54067e+01  5.34433e+01             
       O -6.73438e+01 -2.31340e+01  6.81632e+01             
       H -6.65013e+01 -2.37040e+01  6.81809e+01             
       H -6.69297e+01 -2.23017e+01  6.79502e+01             
       O -7.44321e+01 -2.28382e+01  4.26477e+01             
       H -7.36162e+01 -2.23825e+01  4.22648e+01             
       H -6.30706e+01  6.57812e-01  5.84599e+01             
       O -5.71168e+01 -1.79341e+01  7.22046e+01             
       H -5.67282e+01 -1.70125e+01  7.23602e+01             
       H -5.63536e+01 -3.10450e+01  7.20971e+01             
       O -8.10721e+01 -1.10382e+01  4.56866e+01             
       H -8.05122e+01 -1.13794e+01  4.64614e+01             
       H -8.04793e+01 -1.08844e+01  4.48464e+01             
       O -7.77691e+01 -2.77998e+01  5.09620e+01             
       H -7.70221e+01 -2.75278e+01  5.03980e+01             
       H -7.74285e+01 -2.83894e+01  5.17097e+01             
       O -7.92900e+01 -8.82830e+00  6.38160e+01             
       H -7.87539e+01 -9.55391e+00  6.41094e+01             
       H -7.88918e+01 -8.65029e+00  6.29208e+01             
       O -7.40862e+01 -1.27666e+01  5.06327e+01             
       H -7.36769e+01 -1.30085e+01  5.15294e+01             
       H -6.62728e+01 -1.28089e+01  4.70067e+01             
       O -7.27496e+01 -2.95313e+01  4.99017e+01             
       H -7.23181e+01 -2.87786e+01  5.04087e+01             
       H -6.91665e+01 -2.96001e+01  6.47088e+01             
       O -8.23651e+01 -2.27206e+01  5.39941e+01             
       H -8.26603e+01 -2.36340e+01  5.41983e+01             
       H -8.15401e+01 -2.23911e+01  5.44519e+01             
       O -6.85756e+01 -2.65890e+01  6.58782e+01             
       H -6.83723e+01 -2.59402e+01  6.51654e+01             
       H -6.79075e+01 -2.66094e+01  6.66351e+01             
       O -7.54934e+01 -1.04085e+01  6.32120e+01             
       H -7.48437e+01 -9.74937e+00  6.34080e+01             
       H -7.49181e+01 -1.12374e+01  6.30105e+01             
       O -7.31581e+01 -1.04238e+01  4.54035e+01             
       H -7.24498e+01 -2.22403e+01  4.50850e+01             
       H -7.26854e+01 -1.12251e+01  4.57351e+01             
       O -7.57165e+01 -2.68711e+01  4.91720e+01             
       H -7.51504e+01 -2.62734e+01  4.97316e+01             
       H -7.52312e+01 -2.73442e+01  4.85681e+01             
       O -8.55379e+01 -1.70241e+01  5.58331e+01             
       H -8.49004e+01 -1.75511e+01  5.52545e+01             
       H -8.49951e+01 -1.66723e+01  5.65960e+01             
       O -7.72770e+01  3.66333e+00  5.42335e+01             
       H -5.86782e+01 -2.10073e+01  5.75864e+01             
       H -7.69243e+01  3.29499e+00  5.33589e+01             
       O -6.86357e+01 -1.83215e+01  6.35713e+01             
       H -7.21702e+01 -2.55325e+01  5.92801e+01             
       H -8.04640e+01 -1.88139e+01  6.41826e+01             
       O -6.77503e+01 -3.21413e+01  5.94251e+01             
       H -6.70932e+01 -3.24772e+01  6.01698e+01             
       H -6.70721e+01 -3.19803e+01  5.86760e+01             
       O -7.46402e+01 -2.16107e+01  5.95190e+01             
       H -7.42836e+01 -2.07657e+01  5.98297e+01             
       H -7.39274e+01 -2.20266e+01  5.89941e+01             
       O -7.52139e+01 -4.32753e+01  5.89341e+01             
       H -7.46774e+01 -4.39102e+01  5.83753e+01             
       H -7.44691e+01 -4.27017e+01  7.17513e+01             
       O -7.72781e+01 -6.04880e+00  5.43681e+01             
       H -7.67950e+01 -5.45997e+00  5.36302e+01             
       H -7.69066e+01 -6.96137e+00  5.43089e+01             
       O -6.45033e+01 -2.27476e+01  6.03287e+01             
       H -6.41044e+01 -2.32775e+01  6.10725e+01             
       H -6.37058e+01 -2.22299e+01  6.00451e+01             
       O -7.43300e+01 -2.67759e+01  6.94002e+01             
       H -7.35103e+01 -2.65802e+01  6.99491e+01             
       H -7.40371e+01 -2.67847e+01  6.85064e+01             
       O -9.02063e+01 -2.34224e+01  5.19406e+01             
       H -8.97737e+01 -2.38456e+01  5.27460e+01             
       H -8.93601e+01 -2.30876e+01  5.15161e+01             
       O -7.12692e+01 -5.92421e+00  6.67775e+01             
       H -7.04529e+01 -6.26136e+00  6.72768e+01             
       H -7.08858e+01 -5.29754e+00  6.61880e+01             
       O -7.62278e+01 -1.68121e+01  5.26021e+01             
       H -7.57632e+01 -1.73736e+01  5.18994e+01             
       H -7.55719e+01 -1.62817e+01  4.07054e+01             
       O -6.93962e+01 -1.43415e+01  3.71921e+01             
       H -6.88593e+01 -1.50484e+01  3.67228e+01             
       H -8.11830e+01 -1.36691e+01  3.73270e+01             
       O -6.24390e+01 -1.83820e+01  3.85585e+01             
       H -6.21178e+01 -1.91868e+01  3.89991e+01             
       H -6.15675e+01 -1.79572e+01  3.82153e+01             
       O -7.46252e+01 -2.78488e+01  4.18078e+01             
       H -7.41701e+01 -2.84894e+01  4.24141e+01             
       H -7.38783e+01 -2.74080e+01  5.37331e+01             
       O -6.72045e+01 -1.92312e+01  4.07561e+01             
       H -7.72888e+01 -1.49852e+01  4.64171e+01             
       H -6.69317e+01 -2.00700e+01  4.02992e+01             
       O -7.13615e+01 -2.77024e+01  6.37111e+01             
       H -7.07417e+01 -2.82305e+01  6.44818e+01             
       H -7.05970e+01 -2.73488e+01  6.31803e+01             
       O -6.10686e+01 -1.64703e+01  4.73993e+01             
       H -6.03249e+01 -1.61118e+01  4.68160e+01             
       H -6.07291e+01 -1.67192e+01  4.82970e+01             
       O -6.38423e+01 -2.86420e+01  5.78093e+01             
       H -6.31822e+01 -2.81833e+01  5.72559e+01             
       H -6.33948e+01 -2.94329e+01  5.82134e+01             
       O -7.08420e+01 -1.27615e+01  6.69782e+01             
       H -7.01347e+01 -1.33328e+01  6.65974e+01             
       H -7.07069e+01 -1.29479e+01  6.79544e+01             
       O -6.13247e+01  3.95099e+00  7.62921e+01             
       H -6.06431e+01  3.76832e+00  7.69363e+01             
       H -6.09947e+01  4.21749e+00  7.53875e+01             
       O -6.96976e+01 -2.90664e+01  6.53243e+01             
       H -7.41363e+01 -2.28938e+01  4.35550e+01             
       H -6.91347e+01 -2.82714e+01  6.55548e+01             
       O -7.66711e+01 -2.12788e+01  5.68511e+01             
       H -6.63934e+01 -1.88974e+01  4.11902e+01             
       H -7.58648e+01 -2.07464e+01  5.68616e+01             
       O -6.66927e+01 -1.19808e+01  4.71888e+01             
       H -7.67068e+01 -9.10784e+00  5.49062e+01             
       H -6.59180e+01 -1.12875e+01  4.72890e+01             
       O -6.78055e+01 -2.82970e+01  6.04687e+01             
       H -7.97400e+01 -2.90086e+01  7.34125e+01             
       H -5.96300e+01 -7.36482e+00  6.16852e+01             
       O -1.04629e+02 -1.26548e+01  6.36405e+01             
       H -1.03987e+02 -1.33501e+01  6.34363e+01             
       H -1.03966e+02 -1.19807e+01  6.39748e+01             
       O -7.16518e+01 -3.34232e+01  5.67618e+01             
       H -7.10302e+01 -3.34966e+01  5.60054e+01             
       H -6.79574e+01 -1.78708e+01  6.30102e+01             
       O -7.78621e+01 -1.44569e+01  4.70246e+01             
       H -7.72324e+01 -1.42877e+01  4.78337e+01             
       H -8.45938e+01 -2.57549e+01  2.85825e+01             
       O -8.21751e+01 -2.18391e+01  5.10286e+01             
       H -8.13054e+01 -2.13503e+01  5.09816e+01             
       H -8.19308e+01 -2.24742e+01  5.16768e+01             
       O -6.86238e+01 -2.78401e+01  4.49343e+01             
       H -6.80072e+01 -2.74672e+01  4.42511e+01             
       H -6.80705e+01 -2.80839e+01  4.57235e+01             
       O -5.65342e+01 -3.22460e+01  5.51255e+01             
       H -5.61531e+01 -1.95930e+01  5.59922e+01             
       H -5.58673e+01 -3.20922e+01  5.43859e+01             
       O -6.99705e+01 -1.30187e+01  5.71685e+01             
       H -5.69773e+01 -1.38666e+01  5.73218e+01             
       H -6.93094e+01 -1.22851e+01  5.74623e+01             
       O -6.34512e+01  4.30458e-01  5.76047e+01             
       H -7.20339e+01 -3.02947e+01  4.98990e+01             
       H -7.33060e+01 -1.70622e-01  5.00727e+01             
       O -7.88177e+01 -1.95130e+01  5.72996e+01             
       H -7.82120e+01 -2.02977e+01  5.71806e+01             
       H -7.83146e+01 -1.87643e+01  5.69249e+01             
       O -7.40096e+01 -7.43535e+00  4.46051e+01             
       H -7.39586e+01 -1.90921e+01  4.39326e+01             
       H -7.31116e+01 -7.80458e+00  4.45049e+01             
       O -8.24269e+01 -2.14443e+01  5.88943e+01             
       H -8.17649e+01 -2.06812e+01  5.89623e+01             
       H -8.17382e+01 -2.20663e+01  5.85390e+01             
       O -7.07179e+01 -1.87188e+01  6.19434e+01             
       H -7.00395e+01 -1.87188e+01  6.26123e+01             
       H -7.01547e+01 -1.84473e+01  6.11401e+01             
       O -8.46806e+01 -2.54802e+01  4.59217e+01             
       H -8.37917e+01 -2.54528e+01  5.78800e+01             
       H -7.94739e+01 -4.02460e+01  4.76367e+01             
       O -6.53255e+01 -2.48290e+01  6.81464e+01             
       H -6.46514e+01 -2.47323e+01  6.89057e+01             
       H -6.47347e+01 -2.49127e+01  6.73704e+01             
       O -7.23267e+01 -2.14353e+01  5.40301e+01             
       H -7.22290e+01 -2.05437e+01  5.42844e+01             
       H -7.14136e+01 -2.19549e+01  5.40677e+01             
       O -8.92051e+01 -1.86969e+01  6.13606e+01             
       H -8.87339e+01 -1.86884e+01  6.04829e+01             
       H -8.83317e+01 -1.87092e+01  6.19247e+01             
       O -6.69689e+01 -2.68832e+01  5.55205e+01             
       H -6.63326e+01 -2.61564e+01  5.57420e+01             
       H -6.63481e+01 -2.76315e+01  5.56931e+01             
       O -8.36984e+01 -1.63081e+01  3.31696e+01             
       H -8.28544e+01 -1.58300e+01  3.29290e+01             
       H -8.34203e+01 -1.71220e+01  3.35738e+01             
       O -7.28079e+01 -2.62351e+01  2.80129e+01             
       H -5.03720e+01 -1.26979e+01  4.48640e+01             
       H -7.22298e+01 -2.68008e+01  2.74575e+01             
       O -7.85465e+01 -2.07719e+01  6.12494e+01             
       H -7.79327e+01 -2.14152e+01  6.08937e+01             
       H -7.80139e+01 -1.99445e+01  6.13801e+01             
       O -7.89450e+01 -1.72973e+01  7.45049e+01             
       H -7.82022e+01 -1.78397e+01  7.41975e+01             
       H -7.85438e+01 -1.65231e+01  7.50694e+01             
