192                                                         
# CELL(abcABC):   12.41850    12.41850    12.41850    90.00000    90.00000    90.00000  Step:           0  Bead:       0 x_centroid{angstrom}  cell{angstrom}   
       O -7.43938e+01 -1.00923e+01  6.75270e+01             
       H -7.41572e+01 -1.08568e+01  6.70096e+01             
       H -7.35492e+01 -9.53385e+00  6.75117e+01             
       O -6.20373e+01 -6.91490e+00  5.68630e+01             
       H -6.31545e+01 -1.60330e+01  5.34164e+01             
       H -6.13014e+01 -6.43465e+00  5.64679e+01             
       O -6.58036e+01 -2.67859e+01  5.04863e+01             
       H -6.51933e+01 -1.40909e+01  5.11674e+01             
       H -6.51608e+01 -2.70332e+01  4.97959e+01             
       O -5.98577e+01 -2.06837e+01  5.49636e+01             
       H -5.90225e+01 -2.06845e+01  5.54698e+01             
       H -5.97165e+01 -1.98691e+01  5.44467e+01             
       O -5.27017e+01 -2.01727e+01  4.73411e+01             
       H -5.19243e+01 -1.96189e+01  4.73467e+01             
       H -5.25006e+01 -2.10354e+01  4.77387e+01             
       O -5.61421e+01 -1.81902e+01  6.29299e+01             
       H -5.54312e+01 -1.84331e+01  6.22516e+01             
       H -5.57232e+01 -1.74344e+01  6.35571e+01             
       O -6.25792e+01 -1.88902e+01  3.60739e+01             
       H -6.16534e+01 -1.88968e+01  3.58415e+01             
       H -5.15704e+01  1.54245e+00  5.21130e+01             
       O -4.70649e+01 -1.67538e+01  6.69017e+01             
       H -4.69296e+01 -1.71000e+01  6.77770e+01             
       H -4.62512e+01 -2.88033e+01  6.65511e+01             
       O -6.88901e+01 -9.49398e+00  4.10276e+01             
       H -6.83336e+01 -9.25190e+00  4.17793e+01             
       H -6.81747e+01 -9.66046e+00  4.03986e+01             
       O -6.41814e+01 -2.23119e+01  4.86053e+01             
       H -6.35847e+01 -2.30400e+01  4.82989e+01             
       H -6.35435e+01 -2.18078e+01  4.91285e+01             
       O -6.79227e+01 -6.19485e+00  5.58140e+01             
       H -6.73281e+01 -6.77329e+00  5.62345e+01             
       H -6.74215e+01 -5.94691e+00  5.50406e+01             
       O -6.43187e+01 -1.09590e+01  4.53517e+01             
       H -6.42241e+01 -1.00547e+01  4.56498e+01             
       H -5.48853e+01 -1.04524e+01  4.33863e+01             
       O -6.04828e+01 -3.15268e+01  4.02319e+01             
       H -6.06753e+01 -3.06244e+01  4.04767e+01             
       H -5.68836e+01 -2.66931e+01  5.95226e+01             
       O -7.07419e+01 -1.72762e+01  4.91580e+01             
       H -7.00196e+01 -1.76849e+01  4.97301e+01             
       H -7.01961e+01 -1.68777e+01  4.84914e+01             
       O -5.63471e+01 -2.38684e+01  5.85535e+01             
       H -5.63186e+01 -2.36529e+01  5.76136e+01             
       H -5.54271e+01 -2.42362e+01  5.86871e+01             
       O -6.39337e+01 -8.12578e+00  5.54991e+01             
       H -6.30893e+01 -7.68853e+00  5.58566e+01             
       H -6.35780e+01 -9.00445e+00  5.52736e+01             
       O -6.25684e+01 -7.75825e+00  3.85944e+01             
       H -6.20191e+01 -1.94940e+01  3.90135e+01             
       H -6.19613e+01 -8.49734e+00  3.88108e+01             
       O -6.38105e+01 -2.53528e+01  4.28422e+01             
       H -6.33249e+01 -2.56050e+01  4.20655e+01             
       H -6.30876e+01 -2.52991e+01  4.34739e+01             
       O -6.99033e+01 -1.24683e+01  5.04008e+01             
       H -6.89921e+01 -1.25790e+01  5.00523e+01             
       H -6.96949e+01 -1.16815e+01  5.09135e+01             
       O -6.36396e+01  7.66564e+00  4.54924e+01             
       H -4.68706e+01 -1.65872e+01  5.02825e+01             
       H -6.29816e+01  8.31151e+00  4.57670e+01             
       O -5.72013e+01 -1.66775e+01  5.70297e+01             
       H -6.03939e+01 -2.19705e+01  5.25577e+01             
       H -6.88719e+01 -1.72732e+01  5.69103e+01             
       O -5.73683e+01 -2.77267e+01  5.33444e+01             
       H -5.66838e+01 -2.80588e+01  5.26810e+01             
       H -5.69268e+01 -2.70317e+01  5.38728e+01             
       O -6.46875e+01 -1.97669e+01  5.28885e+01             
       H -6.44071e+01 -2.00827e+01  5.37473e+01             
       H -6.38581e+01 -1.98181e+01  5.23581e+01             
       O -6.18264e+01 -4.03772e+01  5.44346e+01             
       H -6.09412e+01 -4.07750e+01  5.44961e+01             
       H -6.14941e+01 -3.94847e+01  6.65664e+01             
       O -6.39103e+01 -2.35556e+00  4.87007e+01             
       H -6.33450e+01 -1.54581e+00  4.87182e+01             
       H -6.34504e+01 -3.08940e+00  4.91788e+01             
       O -5.37934e+01 -1.76112e+01  5.34804e+01             
       H -5.29896e+01 -1.70394e+01  5.33533e+01             
       H -5.34850e+01 -1.84498e+01  5.30294e+01             
       O -6.25655e+01 -2.43358e+01  6.38958e+01             
       H -6.19020e+01 -2.42229e+01  6.45731e+01             
       H -6.20873e+01 -2.42024e+01  6.30526e+01             
       O -7.84343e+01 -2.04779e+01  4.47209e+01             
       H -7.81630e+01 -2.02625e+01  4.56637e+01             
       H -7.76224e+01 -2.05365e+01  4.41544e+01             
       O -5.99221e+01 -1.89906e+00  6.07749e+01             
       H -5.96888e+01 -2.66197e+00  6.13381e+01             
       H -5.90869e+01 -1.46881e+00  6.04254e+01             
       O -6.26797e+01 -1.23475e+01  4.81505e+01             
       H -6.24515e+01 -1.25177e+01  4.71894e+01             
       H -6.18091e+01 -1.20975e+01  3.61784e+01             
       O -5.83759e+01 -1.14259e+01  2.96698e+01             
       H -5.77064e+01 -1.21373e+01  2.95641e+01             
       H -7.02605e+01 -1.06735e+01  2.93731e+01             
       O -4.97342e+01 -1.28509e+01  3.25073e+01             
       H -4.95163e+01 -1.37958e+01  3.27713e+01             
       H -4.88789e+01 -1.24594e+01  3.22888e+01             
       O -6.04099e+01 -2.43542e+01  3.71670e+01             
       H -5.99409e+01 -2.52194e+01  3.70115e+01             
       H -5.96972e+01 -2.36732e+01  4.96998e+01             
       O -5.62095e+01 -1.60411e+01  3.48562e+01             
       H -6.56144e+01 -1.10514e+01  4.15749e+01             
       H -5.65160e+01 -1.63911e+01  3.40579e+01             
       O -5.95434e+01 -2.38424e+01  5.69768e+01             
       H -5.87825e+01 -2.40260e+01  5.75329e+01             
       H -5.90812e+01 -2.36610e+01  5.61293e+01             
       O -4.86527e+01 -1.29860e+01  4.11443e+01             
       H -4.79834e+01 -1.33600e+01  4.04810e+01             
       H -4.80794e+01 -1.27010e+01  4.18780e+01             
       O -5.19760e+01 -2.58931e+01  5.23846e+01             
       H -5.10638e+01 -2.56498e+01  5.21144e+01             
       H -5.19042e+01 -2.67736e+01  5.28004e+01             
       O -5.86737e+01 -7.96694e+00  5.87011e+01             
       H -5.82305e+01 -7.65810e+00  5.78290e+01             
       H -5.78816e+01 -8.33633e+00  5.92065e+01             
       O -4.90226e+01  9.62067e+00  7.09227e+01             
       H -4.84083e+01  8.91685e+00  7.05936e+01             
       H -4.86757e+01  9.91812e+00  7.17584e+01             
       O -5.75118e+01 -2.59659e+01  5.96257e+01             
       H -6.25848e+01 -1.95509e+01  3.67781e+01             
       H -5.71690e+01 -2.52878e+01  5.90699e+01             
       O -6.39712e+01 -1.62788e+01  5.29102e+01             
       H -5.53951e+01 -1.66198e+01  3.50394e+01             
       H -6.36467e+01 -1.65581e+01  5.20535e+01             
       O -5.54573e+01 -9.91040e+00  4.39569e+01             
       H -6.31352e+01 -5.55546e+00  4.53364e+01             
       H -5.47533e+01 -9.39967e+00  4.44475e+01             
       O -5.59822e+01 -2.55277e+01  5.47733e+01             
       H -6.81562e+01 -2.58628e+01  6.81103e+01             
       H -4.93012e+01 -7.76298e+00  5.73071e+01             
       O -9.11483e+01 -1.24536e+01  5.88755e+01             
       H -9.03558e+01 -1.20470e+01  5.84848e+01             
       H -9.09821e+01 -1.33580e+01  5.88876e+01             
       O -6.00975e+01 -2.85838e+01  5.05847e+01             
       H -5.98316e+01 -2.76587e+01  5.09428e+01             
       H -5.68727e+01 -1.58062e+01  5.67409e+01             
       O -6.60050e+01 -1.14082e+01  4.24211e+01             
       H -6.51627e+01 -1.18417e+01  4.27417e+01             
       H -7.24906e+01 -2.14176e+01  2.09324e+01             
       O -7.00087e+01 -2.03529e+01  4.38699e+01             
       H -6.93666e+01 -1.96472e+01  4.36295e+01             
       H -6.94231e+01 -2.11055e+01  4.39284e+01             
       O -5.48038e+01 -2.24623e+01  3.88611e+01             
       H -5.47222e+01 -2.32708e+01  3.84074e+01             
       H -5.39411e+01 -2.24385e+01  3.93647e+01             
       O -4.25987e+01 -2.48627e+01  4.97312e+01             
       H -4.18832e+01 -1.31554e+01  5.00270e+01             
       H -4.25958e+01 -2.48379e+01  4.87879e+01             
       O -5.88853e+01 -9.67395e+00  4.95810e+01             
       H -4.58538e+01 -9.65215e+00  4.87913e+01             
       H -5.83115e+01 -9.26869e+00  5.02164e+01             
       O -5.22623e+01  2.06750e+00  5.25011e+01             
       H -5.95756e+01 -3.15794e+01  3.98052e+01             
       H -6.34153e+01  1.16036e+00  4.50215e+01             
       O -6.56944e+01 -1.62524e+01  4.71211e+01             
       H -6.49595e+01 -1.64602e+01  4.65267e+01             
       H -6.51521e+01 -1.57715e+01  4.77946e+01             
       O -6.26723e+01 -4.26872e+00  3.77440e+01             
       H -6.17168e+01 -1.64520e+01  3.78852e+01             
       H -6.25698e+01 -5.11345e+00  3.71886e+01             
       O -7.01354e+01 -2.01622e+01  5.16382e+01             
       H -6.94375e+01 -1.95268e+01  5.13593e+01             
       H -6.97209e+01 -2.05788e+01  5.24294e+01             
       O -5.97544e+01 -1.71452e+01  5.75426e+01             
       H -5.87474e+01 -1.69779e+01  5.74274e+01             
       H -5.97715e+01 -1.76494e+01  5.83650e+01             
       O -7.33128e+01 -2.21441e+01  3.93625e+01             
       H -7.26995e+01 -2.21063e+01  5.10686e+01             
       H -6.75404e+01 -3.75426e+01  4.20680e+01             
       O -5.48298e+01 -2.05763e+01  6.16669e+01             
       H -5.46915e+01 -2.12488e+01  6.22730e+01             
       H -5.39549e+01 -2.03355e+01  6.13445e+01             
       O -6.00972e+01 -1.85954e+01  4.75509e+01             
       H -5.95612e+01 -1.81838e+01  4.82577e+01             
       H -5.95343e+01 -1.93246e+01  4.72518e+01             
       O -7.77536e+01 -1.50057e+01  5.57782e+01             
       H -7.71549e+01 -1.42761e+01  5.56238e+01             
       H -7.71778e+01 -1.58166e+01  5.57169e+01             
       O -5.68013e+01 -2.15449e+01  4.77761e+01             
       H -5.60078e+01 -2.10148e+01  4.81453e+01             
       H -5.63875e+01 -2.22839e+01  4.72922e+01             
       O -7.17036e+01 -1.39736e+01  2.69743e+01             
       H -7.10247e+01 -1.33330e+01  2.65990e+01             
       H -7.10965e+01 -1.46014e+01  2.75397e+01             
       O -6.10185e+01 -2.15362e+01  2.07297e+01             
       H -3.94076e+01 -9.54509e+00  4.03698e+01             
       H -6.10018e+01 -2.23536e+01  2.01517e+01             
       O -6.76518e+01 -1.61331e+01  5.18101e+01             
       H -6.69571e+01 -1.67088e+01  5.23435e+01             
       H -6.70766e+01 -1.55585e+01  5.12721e+01             
       O -6.75934e+01 -1.49958e+01  6.92885e+01             
       H -6.65815e+01 -1.50436e+01  6.90389e+01             
       H -6.76070e+01 -1.47629e+01  7.02590e+01             
192                                                         
# CELL(abcABC):   12.41850    12.41850    12.41850    90.00000    90.00000    90.00000  Step:      200000  Bead:       0 x_centroid{angstrom}  cell{angstrom}   
       O -8.47394e+01 -1.18245e+01  7.28467e+01             
       H -8.42422e+01 -1.13774e+01  7.21457e+01             
       H -8.41938e+01 -1.17964e+01  7.36753e+01             
       O -7.18366e+01 -8.18737e+00  6.21891e+01             
       H -7.42928e+01 -1.90362e+01  5.99908e+01             
       H -7.09414e+01 -8.32398e+00  6.17601e+01             
       O -7.72779e+01 -3.15368e+01  5.57810e+01             
       H -7.67127e+01 -1.84170e+01  5.63034e+01             
       H -7.66465e+01 -3.20558e+01  5.52211e+01             
       O -7.05863e+01 -2.46476e+01  6.26743e+01             
       H -7.05857e+01 -2.55821e+01  6.25179e+01             
       H -6.97340e+01 -2.43019e+01  6.29242e+01             
       O -6.22698e+01 -2.62290e+01  5.24296e+01             
       H -6.15613e+01 -2.55299e+01  5.24271e+01             
       H -6.16727e+01 -2.69882e+01  5.22147e+01             
       O -6.68800e+01 -2.26560e+01  6.87453e+01             
       H -6.60337e+01 -2.31140e+01  6.86040e+01             
       H -6.65498e+01 -2.18473e+01  6.91576e+01             
       O -7.12049e+01 -2.38343e+01  4.20680e+01             
       H -7.05038e+01 -2.32232e+01  4.17759e+01             
       H -6.16808e+01  3.83987e-01  5.71049e+01             
       O -5.72364e+01 -1.66775e+01  7.39396e+01             
       H -5.71226e+01 -1.73461e+01  7.46447e+01             
       H -5.62938e+01 -2.89069e+01  7.35778e+01             
       O -7.87169e+01 -1.36159e+01  4.51566e+01             
       H -7.82782e+01 -1.42777e+01  4.57203e+01             
       H -7.79951e+01 -1.31328e+01  4.46235e+01             
       O -7.61071e+01 -2.68588e+01  5.45365e+01             
       H -7.55294e+01 -2.65651e+01  5.37395e+01             
       H -7.54395e+01 -2.72844e+01  5.52108e+01             
       O -7.97407e+01 -9.82444e+00  6.15948e+01             
       H -7.94338e+01 -1.06362e+01  6.11645e+01             
       H -7.87889e+01 -9.38901e+00  6.18612e+01             
       O -7.48464e+01 -1.09024e+01  4.86025e+01             
       H -7.40278e+01 -1.11101e+01  4.81004e+01             
       H -6.67872e+01 -1.19719e+01  4.69731e+01             
       O -7.02293e+01 -3.51318e+01  4.67455e+01             
       H -6.98331e+01 -3.46227e+01  4.75527e+01             
       H -6.88234e+01 -3.07138e+01  6.72241e+01             
       O -7.99869e+01 -1.96196e+01  5.39281e+01             
       H -7.92574e+01 -1.97321e+01  5.45616e+01             
       H -7.95980e+01 -1.93526e+01  5.30812e+01             
       O -6.89542e+01 -2.66863e+01  6.52132e+01             
       H -6.82327e+01 -2.59782e+01  6.51896e+01             
       H -6.83418e+01 -2.74544e+01  6.50800e+01             
       O -7.37132e+01 -9.87060e+00  6.31905e+01             
       H -7.29800e+01 -9.43778e+00  6.27228e+01             
       H -7.33405e+01 -1.05960e+01  6.37764e+01             
       O -7.28426e+01 -9.77749e+00  4.38553e+01             
       H -7.26122e+01 -2.14167e+01  4.44204e+01             
       H -7.20628e+01 -1.03077e+01  4.35254e+01             
       O -7.55876e+01 -2.75611e+01  4.83404e+01             
       H -7.46580e+01 -2.72627e+01  4.81654e+01             
       H -7.54968e+01 -2.80677e+01  4.91198e+01             
       O -7.98481e+01 -1.58710e+01  5.58644e+01             
       H -7.89964e+01 -1.61084e+01  5.54733e+01             
       H -7.97091e+01 -1.51415e+01  5.64730e+01             
       O -7.49024e+01  7.76102e+00  5.05816e+01             
       H -5.91538e+01 -2.10645e+01  5.85126e+01             
       H -7.40729e+01  8.04414e+00  5.10448e+01             
       O -6.91654e+01 -1.80158e+01  6.40632e+01             
       H -7.35171e+01 -2.62834e+01  5.83417e+01             
       H -8.08218e+01 -1.85646e+01  6.37289e+01             
       O -6.80523e+01 -3.16777e+01  5.89717e+01             
       H -6.73205e+01 -3.21909e+01  5.85146e+01             
       H -6.75869e+01 -3.11538e+01  5.95750e+01             
       O -7.64632e+01 -2.08467e+01  5.97380e+01             
       H -7.58597e+01 -2.16301e+01  5.97934e+01             
       H -7.58792e+01 -2.00998e+01  5.93793e+01             
       O -7.35049e+01 -4.34165e+01  6.13176e+01             
       H -7.28991e+01 -4.40784e+01  6.17757e+01             
       H -7.29324e+01 -4.27435e+01  7.31852e+01             
       O -7.47500e+01 -8.44006e+00  5.41718e+01             
       H -7.42952e+01 -7.48885e+00  5.41330e+01             
       H -7.42476e+01 -8.99117e+00  5.48002e+01             
       O -6.51256e+01 -2.09945e+01  6.23468e+01             
       H -6.45957e+01 -2.14062e+01  6.30681e+01             
       H -6.45313e+01 -2.07381e+01  6.15656e+01             
       O -7.42145e+01 -2.79399e+01  6.85389e+01             
       H -7.37308e+01 -2.71891e+01  6.91365e+01             
       H -7.35619e+01 -2.83590e+01  6.79826e+01             
       O -8.96021e+01 -2.59549e+01  5.12462e+01             
       H -8.95188e+01 -2.56166e+01  5.02531e+01             
       H -8.87271e+01 -2.59659e+01  5.16413e+01             
       O -7.17418e+01 -3.96009e+00  6.68509e+01             
       H -7.13735e+01 -3.08442e+00  6.71552e+01             
       H -7.10922e+01 -4.58727e+00  6.71838e+01             
       O -7.29665e+01 -1.59646e+01  5.18592e+01             
       H -7.24880e+01 -1.64058e+01  5.25947e+01             
       H -7.22654e+01 -1.54239e+01  3.89693e+01             
       O -6.85823e+01 -1.41329e+01  3.50975e+01             
       H -6.80626e+01 -1.49129e+01  3.50377e+01             
       H -8.03655e+01 -1.34298e+01  3.53794e+01             
       O -6.08549e+01 -1.43185e+01  3.54183e+01             
       H -6.02944e+01 -1.50967e+01  3.53574e+01             
       H -6.03630e+01 -1.34354e+01  3.55689e+01             
       O -7.04561e+01 -2.64916e+01  4.25931e+01             
       H -7.01219e+01 -2.66412e+01  4.34763e+01             
       H -6.97492e+01 -2.66950e+01  5.42958e+01             
       O -6.66689e+01 -1.89533e+01  3.87474e+01             
       H -7.70707e+01 -1.64864e+01  4.59636e+01             
       H -6.62171e+01 -1.97866e+01  3.84330e+01             
       O -7.08891e+01 -2.73068e+01  6.33214e+01             
       H -7.01448e+01 -2.70829e+01  6.40035e+01             
       H -7.04213e+01 -2.78306e+01  6.26422e+01             
       O -5.94627e+01 -1.68748e+01  4.76555e+01             
       H -5.90880e+01 -1.71297e+01  4.67708e+01             
       H -5.86149e+01 -1.69029e+01  4.82344e+01             
       O -6.33467e+01 -2.97596e+01  5.72226e+01             
       H -6.26835e+01 -2.90799e+01  5.68188e+01             
       H -6.27610e+01 -3.04059e+01  5.77347e+01             
       O -6.86677e+01 -1.07165e+01  6.37354e+01             
       H -6.82003e+01 -1.02131e+01  6.30714e+01             
       H -6.79503e+01 -1.12432e+01  6.41763e+01             
       O -6.10169e+01  6.15248e+00  7.83678e+01             
       H -6.01175e+01  5.78444e+00  7.79570e+01             
       H -6.06184e+01  6.87564e+00  7.88904e+01             
       O -6.93803e+01 -3.01116e+01  6.77367e+01             
       H -7.07801e+01 -2.47568e+01  4.21104e+01             
       H -6.87723e+01 -2.93730e+01  6.80424e+01             
       O -7.45008e+01 -1.92729e+01  5.90130e+01             
       H -6.58432e+01 -1.85325e+01  3.90798e+01             
       H -7.35768e+01 -1.96514e+01  5.87289e+01             
       O -6.68435e+01 -1.21566e+01  4.79367e+01             
       H -7.45666e+01 -5.38135e+00  4.99464e+01             
       H -6.59170e+01 -1.24672e+01  4.81871e+01             
       O -6.70937e+01 -2.90448e+01  6.05983e+01             
       H -7.89743e+01 -2.88423e+01  7.38421e+01             
       H -5.93016e+01 -7.94329e+00  6.30722e+01             
       O -1.01683e+02 -1.25908e+01  6.11528e+01             
       H -1.00951e+02 -1.18602e+01  6.11364e+01             
       H -1.01282e+02 -1.34466e+01  6.07781e+01             
       O -7.20428e+01 -3.27261e+01  5.82031e+01             
       H -7.14113e+01 -3.20372e+01  5.80048e+01             
       H -6.86354e+01 -1.73499e+01  6.44941e+01             
       O -7.74441e+01 -1.58224e+01  4.65405e+01             
       H -7.67471e+01 -1.55632e+01  4.72095e+01             
       H -8.45111e+01 -2.41122e+01  2.83599e+01             
       O -8.18144e+01 -2.07697e+01  4.87231e+01             
       H -8.14871e+01 -2.02216e+01  4.79852e+01             
       H -8.09050e+01 -2.12382e+01  4.88735e+01             
       O -6.45006e+01 -2.48058e+01  4.38075e+01             
       H -6.41241e+01 -2.54598e+01  4.31487e+01             
       H -6.37966e+01 -2.43047e+01  4.42857e+01             
       O -5.29377e+01 -2.88084e+01  5.43122e+01             
       H -5.24511e+01 -1.71298e+01  5.39930e+01             
       H -5.22735e+01 -2.80571e+01  5.43517e+01             
       O -7.05909e+01 -1.36789e+01  5.78959e+01             
       H -5.76950e+01 -1.41325e+01  5.86603e+01             
       H -7.00303e+01 -1.28881e+01  5.77997e+01             
       O -6.23787e+01  1.02572e+00  5.72749e+01             
       H -6.94956e+01 -3.57168e+01  4.63934e+01             
       H -7.45136e+01  2.07275e+00  4.94219e+01             
       O -7.66214e+01 -1.82738e+01  5.22999e+01             
       H -7.60103e+01 -1.90473e+01  5.24888e+01             
       H -7.60137e+01 -1.77054e+01  5.18362e+01             
       O -7.60137e+01 -9.40325e+00  3.96297e+01             
       H -7.57768e+01 -2.12807e+01  4.04228e+01             
       H -7.51691e+01 -9.56334e+00  3.91445e+01             
       O -8.10659e+01 -2.43733e+01  5.75467e+01             
       H -8.05965e+01 -2.36507e+01  5.70222e+01             
       H -8.03221e+01 -2.50399e+01  5.76015e+01             
       O -7.10827e+01 -1.95657e+01  6.46839e+01             
       H -7.03539e+01 -1.89786e+01  6.44509e+01             
       H -7.05403e+01 -2.03066e+01  6.51466e+01             
       O -8.55358e+01 -2.60782e+01  4.50288e+01             
       H -8.44870e+01 -2.61274e+01  5.75782e+01             
       H -7.88026e+01 -4.14157e+01  4.74829e+01             
       O -6.52333e+01 -2.31962e+01  6.64811e+01             
       H -6.46575e+01 -2.37606e+01  6.69864e+01             
       H -6.46409e+01 -2.28636e+01  6.57494e+01             
       O -6.96089e+01 -2.15847e+01  5.35186e+01             
       H -6.88382e+01 -2.10750e+01  5.38851e+01             
       H -6.92192e+01 -2.19621e+01  5.26746e+01             
       O -9.03137e+01 -1.60712e+01  6.27706e+01             
       H -9.00038e+01 -1.51702e+01  6.29934e+01             
       H -8.95390e+01 -1.66409e+01  6.27641e+01             
       O -6.68088e+01 -2.46854e+01  5.25936e+01             
       H -6.63141e+01 -2.42509e+01  5.33162e+01             
       H -6.61574e+01 -2.53413e+01  5.22489e+01             
       O -8.27363e+01 -1.82438e+01  3.29734e+01             
       H -8.24796e+01 -1.79491e+01  3.20692e+01             
       H -8.18520e+01 -1.85018e+01  3.34173e+01             
       O -7.25425e+01 -2.44490e+01  2.74947e+01             
       H -4.95385e+01 -1.05744e+01  4.44926e+01             
       H -7.18081e+01 -2.44691e+01  2.68530e+01             
       O -7.84090e+01 -2.04097e+01  5.78013e+01             
       H -7.77788e+01 -2.07377e+01  5.84915e+01             
       H -7.78168e+01 -1.99585e+01  5.71061e+01             
       O -7.96078e+01 -1.61514e+01  7.72545e+01             
       H -7.90466e+01 -1.60779e+01  7.64178e+01             
       H -7.89041e+01 -1.62928e+01  7.79649e+01             
