192                                                         
# CELL(abcABC):   12.41850    12.41850    12.41850    90.00000    90.00000    90.00000  Step:           0  Bead:       0 x_centroid{angstrom}  cell{angstrom}   
       O -7.47112e+01 -9.90808e+00  6.73011e+01             
       H -7.45317e+01 -9.60570e+00  6.64500e+01             
       H -7.38389e+01 -9.64289e+00  6.77498e+01             
       O -6.21906e+01 -6.70342e+00  5.73238e+01             
       H -6.27016e+01 -1.61002e+01  5.37032e+01             
       H -6.14074e+01 -6.11019e+00  5.73536e+01             
       O -6.66741e+01 -2.70050e+01  5.07063e+01             
       H -6.60993e+01 -1.42986e+01  5.14938e+01             
       H -6.59927e+01 -2.72554e+01  5.00315e+01             
       O -5.98689e+01 -2.08016e+01  5.55689e+01             
       H -5.89290e+01 -2.10745e+01  5.54397e+01             
       H -5.99723e+01 -2.01112e+01  5.49465e+01             
       O -5.25736e+01 -1.99576e+01  4.79069e+01             
       H -5.17856e+01 -1.93641e+01  4.80698e+01             
       H -5.21128e+01 -2.07910e+01  4.76655e+01             
       O -5.64238e+01 -1.86715e+01  6.29523e+01             
       H -5.59112e+01 -1.91849e+01  6.23271e+01             
       H -5.57922e+01 -1.81543e+01  6.34763e+01             
       O -6.28805e+01 -1.87188e+01  3.66365e+01             
       H -6.20529e+01 -1.85557e+01  3.61224e+01             
       H -5.22413e+01  2.10594e+00  5.19632e+01             
       O -4.65833e+01 -1.62231e+01  6.70721e+01             
       H -4.59756e+01 -1.63555e+01  6.78287e+01             
       H -4.60168e+01 -2.82433e+01  6.63641e+01             
       O -7.02347e+01 -9.75664e+00  4.05719e+01             
       H -6.98854e+01 -9.26696e+00  4.13130e+01             
       H -6.94724e+01 -1.01464e+01  4.00529e+01             
       O -6.37168e+01 -2.22747e+01  4.69119e+01             
       H -6.42647e+01 -2.29043e+01  4.64492e+01             
       H -6.28846e+01 -2.21120e+01  4.64568e+01             
       O -6.77184e+01 -6.16775e+00  5.58536e+01             
       H -6.71050e+01 -6.56515e+00  5.65757e+01             
       H -6.72171e+01 -5.91751e+00  5.50363e+01             
       O -6.52132e+01 -1.24753e+01  4.61896e+01             
       H -6.45946e+01 -1.28064e+01  4.55324e+01             
       H -5.47055e+01 -1.07470e+01  4.40675e+01             
       O -6.01251e+01 -3.13054e+01  4.10486e+01             
       H -5.97755e+01 -3.04450e+01  4.14371e+01             
       H -5.74018e+01 -2.72426e+01  5.96916e+01             
       O -7.07931e+01 -1.68411e+01  4.95886e+01             
       H -7.02300e+01 -1.76267e+01  4.98787e+01             
       H -7.01853e+01 -1.64572e+01  4.89680e+01             
       O -5.68654e+01 -2.38286e+01  5.89294e+01             
       H -5.62651e+01 -2.34988e+01  5.82163e+01             
       H -5.64868e+01 -2.46814e+01  5.91702e+01             
       O -6.37576e+01 -8.07950e+00  5.57843e+01             
       H -6.31175e+01 -7.35505e+00  5.60921e+01             
       H -6.31683e+01 -8.81947e+00  5.55155e+01             
       O -6.24162e+01 -7.03238e+00  3.95036e+01             
       H -6.17529e+01 -1.88694e+01  3.99644e+01             
       H -6.20537e+01 -7.93482e+00  3.97470e+01             
       O -6.41631e+01 -2.60924e+01  4.29147e+01             
       H -6.37025e+01 -2.64145e+01  4.21239e+01             
       H -6.33424e+01 -2.58275e+01  4.35087e+01             
       O -7.05754e+01 -1.17318e+01  4.99513e+01             
       H -6.96389e+01 -1.21144e+01  4.98102e+01             
       H -7.07922e+01 -1.11048e+01  4.92544e+01             
       O -6.39020e+01  7.59161e+00  4.61058e+01             
       H -4.75246e+01 -1.61840e+01  5.00977e+01             
       H -6.32805e+01  8.32021e+00  4.62250e+01             
       O -5.72769e+01 -1.71366e+01  5.67299e+01             
       H -5.99442e+01 -2.19725e+01  5.25418e+01             
       H -6.89711e+01 -1.77779e+01  5.64853e+01             
       O -5.71211e+01 -2.75920e+01  5.28142e+01             
       H -5.65175e+01 -2.81730e+01  5.23434e+01             
       H -5.64686e+01 -2.70197e+01  5.32048e+01             
       O -6.45868e+01 -1.97565e+01  5.34777e+01             
       H -6.42140e+01 -2.01022e+01  5.43452e+01             
       H -6.38359e+01 -1.94600e+01  5.29191e+01             
       O -6.16360e+01 -4.04313e+01  5.48333e+01             
       H -6.07571e+01 -4.08793e+01  5.50237e+01             
       H -6.12890e+01 -3.96623e+01  6.67464e+01             
       O -6.45522e+01 -2.67176e+00  4.90808e+01             
       H -6.39605e+01 -1.95826e+00  4.87222e+01             
       H -6.39656e+01 -3.30421e+00  4.96305e+01             
       O -5.36982e+01 -1.76119e+01  5.39593e+01             
       H -5.32978e+01 -1.70350e+01  5.46823e+01             
       H -5.30750e+01 -1.84347e+01  5.37680e+01             
       O -6.32594e+01 -2.40564e+01  6.43157e+01             
       H -6.26747e+01 -2.43410e+01  6.50110e+01             
       H -6.26828e+01 -2.38638e+01  6.35008e+01             
       O -7.84776e+01 -2.01730e+01  4.50502e+01             
       H -7.81328e+01 -1.99593e+01  4.59341e+01             
       H -7.76711e+01 -2.04160e+01  4.45209e+01             
       O -6.05076e+01 -1.72784e+00  6.05977e+01             
       H -6.06202e+01 -2.35678e+00  6.13347e+01             
       H -5.95556e+01 -1.90971e+00  6.03427e+01             
       O -6.31552e+01 -1.30360e+01  4.79994e+01             
       H -6.23832e+01 -1.33763e+01  4.74721e+01             
       H -6.26448e+01 -1.23569e+01  3.61334e+01             
       O -5.88457e+01 -1.19704e+01  3.00767e+01             
       H -5.80089e+01 -1.24516e+01  3.00408e+01             
       H -7.10819e+01 -1.11386e+01  2.95987e+01             
       O -4.99780e+01 -1.29914e+01  3.23284e+01             
       H -4.96940e+01 -1.38278e+01  3.27356e+01             
       H -4.91535e+01 -1.24125e+01  3.23697e+01             
       O -6.14320e+01 -2.35887e+01  3.70476e+01             
       H -6.07249e+01 -2.42398e+01  3.70222e+01             
       H -6.08854e+01 -2.27551e+01  4.93890e+01             
       O -5.65590e+01 -1.65073e+01  3.45878e+01             
       H -6.58802e+01 -1.09198e+01  4.16496e+01             
       H -5.66808e+01 -1.69698e+01  3.37176e+01             
       O -6.01331e+01 -2.40067e+01  5.72916e+01             
       H -5.94718e+01 -2.43062e+01  5.79237e+01             
       H -5.96764e+01 -2.39450e+01  5.64850e+01             
       O -4.86806e+01 -1.32392e+01  4.10908e+01             
       H -4.80973e+01 -1.33713e+01  4.02544e+01             
       H -4.80485e+01 -1.26843e+01  4.15564e+01             
       O -5.27299e+01 -2.65131e+01  5.27600e+01             
       H -5.22774e+01 -2.57180e+01  5.24694e+01             
       H -5.20656e+01 -2.72534e+01  5.29550e+01             
       O -5.88167e+01 -7.73160e+00  5.89301e+01             
       H -5.83835e+01 -7.65099e+00  5.80503e+01             
       H -5.81999e+01 -8.15222e+00  5.95898e+01             
       O -4.94628e+01  9.33494e+00  7.09582e+01             
       H -4.87349e+01  8.93584e+00  7.04507e+01             
       H -4.89779e+01  9.65777e+00  7.18190e+01             
       O -5.79715e+01 -2.64388e+01  5.99205e+01             
       H -6.26462e+01 -1.93670e+01  3.73329e+01             
       H -5.75310e+01 -2.60393e+01  6.06763e+01             
       O -6.35484e+01 -1.61162e+01  5.31447e+01             
       H -5.56609e+01 -1.66896e+01  3.48799e+01             
       H -6.32675e+01 -1.61600e+01  5.21986e+01             
       O -5.52223e+01 -1.02845e+01  4.47436e+01             
       H -6.34025e+01 -5.57528e+00  4.57416e+01             
       H -5.45987e+01 -9.71118e+00  4.51851e+01             
       O -5.61884e+01 -2.53731e+01  5.48651e+01             
       H -6.83198e+01 -2.61060e+01  6.79213e+01             
       H -4.94132e+01 -7.60093e+00  5.74870e+01             
       O -9.23305e+01 -1.39355e+01  5.93134e+01             
       H -9.16404e+01 -1.34052e+01  5.89275e+01             
       H -9.17673e+01 -1.47265e+01  5.94564e+01             
       O -6.06439e+01 -2.79933e+01  5.04804e+01             
       H -6.00261e+01 -2.73855e+01  5.09306e+01             
       H -5.67671e+01 -1.62868e+01  5.66317e+01             
       O -6.61980e+01 -1.15456e+01  4.23143e+01             
       H -6.55256e+01 -1.22767e+01  4.23463e+01             
       H -7.28451e+01 -2.10599e+01  2.16448e+01             
       O -6.92926e+01 -2.09144e+01  4.30963e+01             
       H -6.88057e+01 -2.00271e+01  4.31081e+01             
       H -6.87767e+01 -2.15142e+01  4.36980e+01             
       O -5.56319e+01 -2.27365e+01  3.89552e+01             
       H -5.56829e+01 -2.34581e+01  3.83435e+01             
       H -5.47560e+01 -2.28566e+01  3.93459e+01             
       O -4.35633e+01 -2.54745e+01  4.95968e+01             
       H -4.28399e+01 -1.35730e+01  5.01585e+01             
       H -4.32725e+01 -2.55777e+01  4.86540e+01             
       O -5.97847e+01 -8.96998e+00  4.93257e+01             
       H -4.66727e+01 -9.08593e+00  4.86372e+01             
       H -5.92522e+01 -8.75607e+00  5.01153e+01             
       O -5.30002e+01  2.60249e+00  5.23127e+01             
       H -5.94653e+01 -3.16328e+01  4.04408e+01             
       H -6.46332e+01 -1.61286e-01  4.70037e+01             
       O -6.61981e+01 -1.64208e+01  4.73358e+01             
       H -6.55730e+01 -1.69118e+01  4.67230e+01             
       H -6.55078e+01 -1.61222e+01  4.80195e+01             
       O -6.32187e+01 -4.10993e+00  3.81144e+01             
       H -6.22673e+01 -1.63069e+01  3.81518e+01             
       H -6.32045e+01 -5.01991e+00  3.77847e+01             
       O -7.09576e+01 -2.00575e+01  5.15912e+01             
       H -7.00912e+01 -1.95824e+01  5.13263e+01             
       H -7.06122e+01 -2.07055e+01  5.22578e+01             
       O -5.98434e+01 -1.71932e+01  5.76962e+01             
       H -5.89516e+01 -1.72238e+01  5.73303e+01             
       H -5.97720e+01 -1.72557e+01  5.86214e+01             
       O -7.33407e+01 -2.19990e+01  3.99825e+01             
       H -7.33800e+01 -2.25508e+01  5.16223e+01             
       H -6.77946e+01 -3.73236e+01  4.22024e+01             
       O -5.49478e+01 -2.07051e+01  6.17729e+01             
       H -5.47249e+01 -2.11515e+01  6.26264e+01             
       H -5.40190e+01 -2.05243e+01  6.14592e+01             
       O -6.05403e+01 -1.83188e+01  4.79514e+01             
       H -5.98674e+01 -1.78206e+01  4.84724e+01             
       H -6.01106e+01 -1.90727e+01  4.74679e+01             
       O -7.79464e+01 -1.57972e+01  5.59655e+01             
       H -7.74105e+01 -1.49965e+01  5.57712e+01             
       H -7.75061e+01 -1.61042e+01  5.67807e+01             
       O -5.73041e+01 -2.17559e+01  4.81757e+01             
       H -5.65228e+01 -2.13929e+01  4.86336e+01             
       H -5.70153e+01 -2.23941e+01  4.75249e+01             
       O -7.14170e+01 -1.38730e+01  2.67989e+01             
       H -7.10939e+01 -1.31075e+01  2.63081e+01             
       H -7.06879e+01 -1.44593e+01  2.69793e+01             
       O -6.11774e+01 -2.14925e+01  2.12974e+01             
       H -4.01760e+01 -8.96119e+00  4.01343e+01             
       H -6.08003e+01 -2.21607e+01  2.06844e+01             
       O -6.73183e+01 -1.68465e+01  5.19011e+01             
       H -6.68027e+01 -1.70287e+01  5.27018e+01             
       H -6.69685e+01 -1.61237e+01  5.13014e+01             
       O -6.79596e+01 -1.48879e+01  6.89885e+01             
       H -6.70229e+01 -1.51690e+01  6.88265e+01             
       H -6.79266e+01 -1.46206e+01  6.99344e+01             
192                                                         
# CELL(abcABC):   12.41850    12.41850    12.41850    90.00000    90.00000    90.00000  Step:      200000  Bead:       0 x_centroid{angstrom}  cell{angstrom}   
       O -8.51713e+01 -1.38590e+01  7.11799e+01             
       H -8.47489e+01 -1.47121e+01  7.14446e+01             
       H -8.44641e+01 -1.34737e+01  7.06057e+01             
       O -7.36915e+01 -1.18527e+01  6.29975e+01             
       H -7.46966e+01 -1.84357e+01  5.80494e+01             
       H -7.31466e+01 -1.10266e+01  6.29091e+01             
       O -7.76164e+01 -3.01044e+01  5.68278e+01             
       H -7.66136e+01 -1.80266e+01  5.69180e+01             
       H -7.78032e+01 -3.03894e+01  5.58959e+01             
       O -7.06693e+01 -2.50994e+01  5.78073e+01             
       H -6.98839e+01 -2.53852e+01  5.83635e+01             
       H -7.03498e+01 -2.53826e+01  5.69160e+01             
       O -6.49937e+01 -2.17765e+01  5.28804e+01             
       H -6.42826e+01 -2.11219e+01  5.31949e+01             
       H -6.45667e+01 -2.26427e+01  5.27378e+01             
       O -6.80949e+01 -2.18755e+01  6.90270e+01             
       H -6.75016e+01 -2.25347e+01  6.86437e+01             
       H -6.74680e+01 -2.13764e+01  6.95677e+01             
       O -7.56170e+01 -1.98104e+01  4.09621e+01             
       H -7.50253e+01 -1.96780e+01  4.02127e+01             
       H -6.33113e+01  3.21268e-01  5.55426e+01             
       O -5.71442e+01 -1.93225e+01  7.39480e+01             
       H -5.62570e+01 -1.92810e+01  7.45742e+01             
       H -5.67837e+01 -3.13806e+01  7.31271e+01             
       O -8.07746e+01 -1.29525e+01  4.69041e+01             
       H -8.07486e+01 -1.20130e+01  4.71412e+01             
       H -7.99794e+01 -1.30863e+01  4.63366e+01             
       O -7.45847e+01 -2.47144e+01  5.44727e+01             
       H -7.38080e+01 -2.52823e+01  5.41716e+01             
       H -7.40465e+01 -2.39365e+01  5.46404e+01             
       O -7.82898e+01 -9.28798e+00  6.28150e+01             
       H -7.77975e+01 -9.23022e+00  6.36784e+01             
       H -7.77111e+01 -9.22262e+00  6.20328e+01             
       O -7.54550e+01 -1.63368e+01  5.19040e+01             
       H -7.49600e+01 -1.58410e+01  5.11943e+01             
       H -6.53262e+01 -1.35367e+01  5.04436e+01             
       O -7.08663e+01 -3.40953e+01  4.85997e+01             
       H -7.03606e+01 -3.32142e+01  4.87127e+01             
       H -6.83130e+01 -3.01547e+01  6.59102e+01             
       O -8.19390e+01 -2.07421e+01  5.46334e+01             
       H -8.11881e+01 -2.11114e+01  5.52972e+01             
       H -8.12681e+01 -2.02125e+01  5.40225e+01             
       O -6.71396e+01 -2.72271e+01  6.54973e+01             
       H -6.68942e+01 -2.65934e+01  6.48069e+01             
       H -6.63204e+01 -2.76970e+01  6.58032e+01             
       O -7.45879e+01 -1.26332e+01  6.05681e+01             
       H -7.41422e+01 -1.22910e+01  6.13863e+01             
       H -7.38905e+01 -1.29817e+01  5.98692e+01             
       O -7.27191e+01 -8.83113e+00  4.66413e+01             
       H -7.20895e+01 -2.14896e+01  4.74038e+01             
       H -7.21338e+01 -8.88494e+00  4.58121e+01             
       O -7.61571e+01 -2.82100e+01  4.74584e+01             
       H -7.57353e+01 -2.78569e+01  4.66001e+01             
       H -7.54316e+01 -2.83589e+01  4.80675e+01             
       O -8.27061e+01 -1.37953e+01  5.52462e+01             
       H -8.21990e+01 -1.45341e+01  5.56877e+01             
       H -8.19165e+01 -1.33016e+01  5.49284e+01             
       O -7.40183e+01  5.19636e+00  5.10683e+01             
       H -5.85051e+01 -1.99327e+01  5.54929e+01             
       H -7.35065e+01  5.97225e+00  5.09066e+01             
       O -6.74273e+01 -1.94894e+01  6.28814e+01             
       H -7.24030e+01 -2.26833e+01  5.59204e+01             
       H -7.95135e+01 -2.04118e+01  6.27986e+01             
       O -6.83283e+01 -3.08860e+01  5.91003e+01             
       H -6.75096e+01 -3.15024e+01  5.90931e+01             
       H -6.81384e+01 -3.00398e+01  5.94644e+01             
       O -7.51524e+01 -2.27223e+01  5.89536e+01             
       H -7.47031e+01 -2.35255e+01  5.92496e+01             
       H -7.43280e+01 -2.21922e+01  5.88399e+01             
       O -7.40107e+01 -4.34382e+01  5.97788e+01             
       H -7.35101e+01 -4.43141e+01  5.95657e+01             
       H -7.34467e+01 -4.25994e+01  7.18196e+01             
       O -7.52660e+01 -3.92016e+00  5.54197e+01             
       H -7.45615e+01 -3.87533e+00  5.46517e+01             
       H -7.49788e+01 -4.67738e+00  5.59808e+01             
       O -6.47238e+01 -2.14340e+01  6.03280e+01             
       H -6.41975e+01 -2.07227e+01  6.07328e+01             
       H -6.40268e+01 -2.19602e+01  5.97656e+01             
       O -7.50833e+01 -2.71109e+01  7.02132e+01             
       H -7.41568e+01 -2.69052e+01  7.05384e+01             
       H -7.50924e+01 -2.74713e+01  6.93401e+01             
       O -8.83348e+01 -2.41746e+01  5.23266e+01             
       H -8.77995e+01 -2.43343e+01  5.31467e+01             
       H -8.76428e+01 -2.40051e+01  5.16181e+01             
       O -7.13676e+01 -5.23182e+00  6.56679e+01             
       H -7.14996e+01 -5.97830e+00  6.63035e+01             
       H -7.03562e+01 -4.95501e+00  6.57051e+01             
       O -7.35372e+01 -1.63130e+01  5.35512e+01             
       H -7.26792e+01 -1.68211e+01  5.35510e+01             
       H -7.31121e+01 -1.53622e+01  4.12318e+01             
       O -6.87126e+01 -1.50086e+01  3.63961e+01             
       H -6.77824e+01 -1.54735e+01  3.62699e+01             
       H -8.11026e+01 -1.41546e+01  3.59684e+01             
       O -6.14516e+01 -1.52536e+01  3.72457e+01             
       H -6.05763e+01 -1.54496e+01  3.67961e+01             
       H -6.17633e+01 -1.43517e+01  3.71242e+01             
       O -7.25302e+01 -2.63502e+01  4.12685e+01             
       H -7.17653e+01 -2.62495e+01  4.18935e+01             
       H -7.22729e+01 -2.60799e+01  5.27635e+01             
       O -6.77629e+01 -1.92203e+01  4.07017e+01             
       H -7.62767e+01 -1.28790e+01  4.83322e+01             
       H -6.75913e+01 -1.93480e+01  3.97585e+01             
       O -7.09910e+01 -2.83806e+01  6.14281e+01             
       H -7.10409e+01 -2.90241e+01  6.21538e+01             
       H -7.00062e+01 -2.82650e+01  6.12535e+01             
       O -5.99067e+01 -1.67312e+01  4.67709e+01             
       H -5.92131e+01 -1.71524e+01  4.61388e+01             
       H -5.93297e+01 -1.66024e+01  4.76187e+01             
       O -6.66480e+01 -2.81628e+01  5.75116e+01             
       H -6.59342e+01 -2.87953e+01  5.72829e+01             
       H -6.62504e+01 -2.73037e+01  5.78299e+01             
       O -6.97700e+01 -1.20433e+01  6.42371e+01             
       H -6.90871e+01 -1.15951e+01  6.36955e+01             
       H -6.92825e+01 -1.22421e+01  6.50940e+01             
       O -5.92457e+01  6.78151e+00  7.53586e+01             
       H -5.84936e+01  6.23389e+00  7.49867e+01             
       H -5.90569e+01  6.82137e+00  7.63391e+01             
       O -6.88225e+01 -2.93019e+01  6.60479e+01             
       H -7.50363e+01 -1.99012e+01  4.17718e+01             
       H -6.84130e+01 -2.86170e+01  6.54740e+01             
       O -7.51643e+01 -1.86080e+01  5.72347e+01             
       H -6.68469e+01 -1.90893e+01  4.11369e+01             
       H -7.46331e+01 -1.92455e+01  5.66985e+01             
       O -6.55451e+01 -1.32237e+01  5.13299e+01             
       H -7.35121e+01 -8.03223e+00  5.08179e+01             
       H -6.47680e+01 -1.26863e+01  5.17246e+01             
       O -6.65316e+01 -2.89148e+01  6.08683e+01             
       H -7.84861e+01 -2.93843e+01  7.39906e+01             
       H -6.05487e+01 -1.25915e+01  6.31618e+01             
       O -1.02032e+02 -1.60421e+01  6.61934e+01             
       H -1.01384e+02 -1.59158e+01  6.54404e+01             
       H -1.01433e+02 -1.61445e+01  6.70094e+01             
       O -7.16093e+01 -3.17178e+01  5.58227e+01             
       H -7.12144e+01 -3.11729e+01  5.65711e+01             
       H -6.65365e+01 -1.89101e+01  6.27811e+01             
       O -7.72359e+01 -1.32956e+01  4.82677e+01             
       H -7.70306e+01 -1.42308e+01  4.81497e+01             
       H -8.33286e+01 -2.53489e+01  2.63887e+01             
       O -7.98764e+01 -2.37371e+01  5.07272e+01             
       H -7.92873e+01 -2.28874e+01  5.06827e+01             
       H -7.92065e+01 -2.44023e+01  5.10599e+01             
       O -6.57784e+01 -2.56370e+01  4.55484e+01             
       H -6.53182e+01 -2.55087e+01  4.63856e+01             
       H -6.50627e+01 -2.54261e+01  4.49132e+01             
       O -5.64302e+01 -2.83988e+01  5.61799e+01             
       H -5.62926e+01 -1.62814e+01  5.52676e+01             
       H -5.56025e+01 -2.82680e+01  5.66303e+01             
       O -7.09532e+01 -1.00551e+01  5.73002e+01             
       H -5.76837e+01 -9.89209e+00  5.67879e+01             
       H -7.09372e+01 -1.09467e+01  5.76975e+01             
       O -6.40948e+01  5.87991e-01  5.61090e+01             
       H -7.00925e+01 -3.47017e+01  4.84084e+01             
       H -7.46152e+01 -3.96029e+00  5.25194e+01             
       O -7.77842e+01 -1.85925e+01  5.39125e+01             
       H -7.69137e+01 -1.90175e+01  5.38704e+01             
       H -7.76399e+01 -1.75741e+01  5.38101e+01             
       O -7.39851e+01 -7.81861e+00  4.31006e+01             
       H -7.30290e+01 -1.97858e+01  4.30469e+01             
       H -7.38006e+01 -8.78543e+00  4.30187e+01             
       O -8.07880e+01 -2.29824e+01  6.05773e+01             
       H -8.05227e+01 -2.35610e+01  6.13360e+01             
       H -7.99852e+01 -2.25365e+01  6.03395e+01             
       O -7.24945e+01 -2.17849e+01  6.31512e+01             
       H -7.18147e+01 -2.18637e+01  6.23811e+01             
       H -7.19086e+01 -2.18390e+01  6.39919e+01             
       O -8.53770e+01 -2.26676e+01  4.26823e+01             
       H -8.47199e+01 -2.25670e+01  5.43555e+01             
       H -7.82268e+01 -4.10381e+01  4.78719e+01             
       O -6.63205e+01 -2.32714e+01  6.75563e+01             
       H -6.56032e+01 -2.37950e+01  6.80018e+01             
       H -6.57737e+01 -2.26638e+01  6.70077e+01             
       O -7.12715e+01 -2.22965e+01  5.31169e+01             
       H -7.05112e+01 -2.19318e+01  5.35654e+01             
       H -7.08615e+01 -2.31916e+01  5.27694e+01             
       O -8.82319e+01 -1.93310e+01  6.14507e+01             
       H -8.76416e+01 -1.88867e+01  6.07586e+01             
       H -8.75874e+01 -1.96640e+01  6.21675e+01             
       O -6.81688e+01 -2.48091e+01  5.41278e+01             
       H -6.74767e+01 -2.41619e+01  5.44506e+01             
       H -6.76438e+01 -2.56263e+01  5.39783e+01             
       O -8.27670e+01 -1.78878e+01  3.28174e+01             
       H -8.22417e+01 -1.71609e+01  3.23419e+01             
       H -8.19557e+01 -1.83365e+01  3.33522e+01             
       O -7.17038e+01 -2.59785e+01  2.60885e+01             
       H -5.13704e+01 -1.14077e+01  4.45029e+01             
       H -7.14255e+01 -2.66082e+01  2.53663e+01             
       O -7.86236e+01 -1.99644e+01  5.85805e+01             
       H -7.79726e+01 -2.02988e+01  5.92297e+01             
       H -7.81143e+01 -1.92771e+01  5.80873e+01             
       O -7.75888e+01 -1.81766e+01  7.51070e+01             
       H -7.68467e+01 -1.86242e+01  7.45243e+01             
       H -7.71454e+01 -1.75259e+01  7.56883e+01             
