192                                                         
# CELL(abcABC):   12.41850    12.41850    12.41850    90.00000    90.00000    90.00000  Step:           0  Bead:       0 x_centroid{angstrom}  cell{angstrom}   
       O -7.38573e+01 -1.06142e+01  6.62302e+01             
       H -7.36223e+01 -1.14507e+01  6.58867e+01             
       H -7.29420e+01 -1.01844e+01  6.65018e+01             
       O -6.10216e+01 -6.14432e+00  5.76219e+01             
       H -6.24477e+01 -1.54448e+01  5.24769e+01             
       H -6.01452e+01 -6.07667e+00  5.72089e+01             
       O -6.60165e+01 -2.60609e+01  4.96319e+01             
       H -6.59688e+01 -1.41619e+01  5.04298e+01             
       H -6.50769e+01 -2.60640e+01  4.92965e+01             
       O -5.92347e+01 -2.12210e+01  5.44433e+01             
       H -5.82901e+01 -2.12493e+01  5.46547e+01             
       H -5.96868e+01 -2.06770e+01  5.51196e+01             
       O -5.24091e+01 -2.01270e+01  4.75418e+01             
       H -5.18457e+01 -1.94655e+01  4.78681e+01             
       H -5.18107e+01 -2.09538e+01  4.75362e+01             
       O -5.58881e+01 -1.87649e+01  6.24845e+01             
       H -5.52085e+01 -1.94618e+01  6.22735e+01             
       H -5.54430e+01 -1.81252e+01  6.29289e+01             
       O -6.24426e+01 -1.89266e+01  3.63754e+01             
       H -6.15665e+01 -1.92978e+01  3.61301e+01             
       H -5.06868e+01  2.57864e+00  5.10324e+01             
       O -4.53522e+01 -1.51295e+01  6.73804e+01             
       H -4.47760e+01 -1.50627e+01  6.81444e+01             
       H -4.47686e+01 -2.75399e+01  6.66215e+01             
       O -6.70177e+01 -8.15499e+00  4.07348e+01             
       H -6.64673e+01 -8.38300e+00  4.15123e+01             
       H -6.63553e+01 -8.00600e+00  3.99905e+01             
       O -6.29835e+01 -2.20472e+01  4.77789e+01             
       H -6.23092e+01 -2.24131e+01  4.71873e+01             
       H -6.24277e+01 -2.17797e+01  4.85283e+01             
       O -6.84888e+01 -6.15414e+00  5.68179e+01             
       H -6.79884e+01 -6.40886e+00  5.76246e+01             
       H -6.77590e+01 -5.84897e+00  5.61828e+01             
       O -6.27438e+01 -1.04736e+01  4.37867e+01             
       H -6.20088e+01 -1.05024e+01  4.44349e+01             
       H -5.28987e+01 -9.30572e+00  4.29207e+01             
       O -5.89865e+01 -2.97958e+01  4.14821e+01             
       H -5.85439e+01 -2.89822e+01  4.18845e+01             
       H -5.64228e+01 -2.57606e+01  5.74674e+01             
       O -6.99870e+01 -1.75011e+01  4.81718e+01             
       H -6.95240e+01 -1.80667e+01  4.87788e+01             
       H -6.93050e+01 -1.68781e+01  4.78533e+01             
       O -5.47916e+01 -2.31252e+01  5.73415e+01             
       H -5.46774e+01 -2.23517e+01  5.67819e+01             
       H -5.38593e+01 -2.34638e+01  5.74359e+01             
       O -6.26138e+01 -7.72886e+00  5.60954e+01             
       H -6.19571e+01 -7.25111e+00  5.65974e+01             
       H -6.24945e+01 -8.69519e+00  5.59593e+01             
       O -6.22237e+01 -6.47801e+00  3.94507e+01             
       H -6.18084e+01 -1.80388e+01  3.94546e+01             
       H -6.14610e+01 -7.05650e+00  3.97587e+01             
       O -6.34771e+01 -2.56390e+01  4.23932e+01             
       H -6.25800e+01 -2.58509e+01  4.20521e+01             
       H -6.32975e+01 -2.55480e+01  4.33380e+01             
       O -7.04939e+01 -1.13671e+01  4.99056e+01             
       H -6.97140e+01 -1.18886e+01  4.95311e+01             
       H -7.00782e+01 -1.07873e+01  5.05320e+01             
       O -6.27017e+01  8.23478e+00  4.57850e+01             
       H -4.65922e+01 -1.65508e+01  4.91531e+01             
       H -6.21419e+01  8.97234e+00  4.59703e+01             
       O -5.56348e+01 -1.46308e+01  5.68719e+01             
       H -5.98296e+01 -2.08671e+01  5.28806e+01             
       H -6.80324e+01 -1.54376e+01  5.74110e+01             
       O -5.67094e+01 -2.71357e+01  5.25253e+01             
       H -5.62017e+01 -2.79099e+01  5.21185e+01             
       H -5.60212e+01 -2.65070e+01  5.25122e+01             
       O -6.43398e+01 -1.95405e+01  5.35357e+01             
       H -6.38765e+01 -1.98223e+01  5.43950e+01             
       H -6.35766e+01 -1.92125e+01  5.30148e+01             
       O -6.13666e+01 -4.13352e+01  5.36978e+01             
       H -6.04849e+01 -4.18699e+01  5.37919e+01             
       H -6.10768e+01 -4.04055e+01  6.62243e+01             
       O -6.38157e+01 -1.82778e+00  4.84828e+01             
       H -6.34131e+01 -1.30023e+00  4.77827e+01             
       H -6.31709e+01 -2.59282e+00  4.86639e+01             
       O -5.42358e+01 -1.78286e+01  5.47616e+01             
       H -5.37511e+01 -1.70480e+01  5.50645e+01             
       H -5.35082e+01 -1.84788e+01  5.47155e+01             
       O -6.15090e+01 -2.20797e+01  6.25957e+01             
       H -6.09796e+01 -2.16859e+01  6.33195e+01             
       H -6.09089e+01 -2.25893e+01  6.20575e+01             
       O -7.74421e+01 -1.93597e+01  4.46434e+01             
       H -7.73738e+01 -1.94627e+01  4.56297e+01             
       H -7.65271e+01 -1.95630e+01  4.43273e+01             
       O -5.88360e+01 -1.42924e+00  5.95984e+01             
       H -5.84574e+01 -7.30476e-01  5.90001e+01             
       H -5.80601e+01 -1.75155e+00  6.00711e+01             
       O -6.22936e+01 -1.21446e+01  4.66305e+01             
       H -6.19723e+01 -1.26146e+01  4.58548e+01             
       H -6.14454e+01 -1.21350e+01  3.46835e+01             
       O -5.73877e+01 -1.16341e+01  2.92495e+01             
       H -5.68811e+01 -1.24645e+01  2.93035e+01             
       H -6.94040e+01 -1.12252e+01  2.83736e+01             
       O -4.89617e+01 -1.36369e+01  3.18402e+01             
       H -4.83903e+01 -1.43447e+01  3.22162e+01             
       H -4.82058e+01 -1.31827e+01  3.13838e+01             
       O -6.00203e+01 -2.33603e+01  3.58398e+01             
       H -5.91728e+01 -2.34278e+01  3.63570e+01             
       H -5.98944e+01 -2.26730e+01  4.76335e+01             
       O -5.60055e+01 -1.58088e+01  3.47004e+01             
       H -6.45428e+01 -1.07010e+01  4.06358e+01             
       H -5.58700e+01 -1.49243e+01  3.50202e+01             
       O -5.91521e+01 -2.46084e+01  5.60421e+01             
       H -5.82909e+01 -2.48746e+01  5.64909e+01             
       H -5.86860e+01 -2.42079e+01  5.53004e+01             
       O -4.84637e+01 -1.34167e+01  4.12147e+01             
       H -4.82169e+01 -1.34414e+01  4.02997e+01             
       H -4.75315e+01 -1.33776e+01  4.16262e+01             
       O -5.32949e+01 -2.73770e+01  5.19612e+01             
       H -5.34066e+01 -2.67672e+01  5.26906e+01             
       H -5.23573e+01 -2.75321e+01  5.19929e+01             
       O -5.80112e+01 -8.67987e+00  5.83238e+01             
       H -5.74216e+01 -8.24834e+00  5.76583e+01             
       H -5.74630e+01 -9.13199e+00  5.89604e+01             
       O -4.75148e+01  9.27471e+00  7.04849e+01             
       H -4.70642e+01  8.53038e+00  7.00808e+01             
       H -4.68570e+01  9.83809e+00  7.09662e+01             
       O -5.70108e+01 -2.50183e+01  5.77162e+01             
       H -6.26369e+01 -1.93577e+01  3.72243e+01             
       H -5.64863e+01 -2.42141e+01  5.77541e+01             
       O -6.29920e+01 -1.48301e+01  5.19976e+01             
       H -5.50664e+01 -1.61444e+01  3.45609e+01             
       H -6.25558e+01 -1.49010e+01  5.11078e+01             
       O -5.36431e+01 -8.71830e+00  4.30796e+01             
       H -6.20279e+01 -4.89382e+00  4.55768e+01             
       H -5.33003e+01 -8.04175e+00  4.37622e+01             
       O -5.45501e+01 -2.51875e+01  5.39163e+01             
       H -6.64039e+01 -2.56840e+01  6.69526e+01             
       H -4.83274e+01 -6.32652e+00  5.85500e+01             
       O -8.93514e+01 -1.17111e+01  5.76037e+01             
       H -8.86762e+01 -1.12050e+01  5.70757e+01             
       H -8.89414e+01 -1.16285e+01  5.84560e+01             
       O -5.96611e+01 -2.85699e+01  4.97401e+01             
       H -5.92505e+01 -2.77280e+01  5.01440e+01             
       H -5.47329e+01 -1.44914e+01  5.64489e+01             
       O -6.49740e+01 -1.10693e+01  4.14139e+01             
       H -6.42350e+01 -1.16218e+01  4.17034e+01             
       H -7.21171e+01 -2.17662e+01  2.05184e+01             
       O -6.91703e+01 -2.16771e+01  4.29615e+01             
       H -6.83201e+01 -2.13218e+01  4.26883e+01             
       H -6.90689e+01 -2.26242e+01  4.27081e+01             
       O -5.38144e+01 -2.32209e+01  3.82166e+01             
       H -5.34594e+01 -2.39270e+01  3.75851e+01             
       H -5.31129e+01 -2.27580e+01  3.86434e+01             
       O -4.36750e+01 -2.52377e+01  4.84385e+01             
       H -4.28069e+01 -1.29613e+01  4.88739e+01             
       H -4.35790e+01 -2.43557e+01  4.79898e+01             
       O -5.62048e+01 -1.05697e+01  5.18190e+01             
       H -4.28996e+01 -1.09273e+01  5.14227e+01             
       H -5.59688e+01 -9.78249e+00  5.23830e+01             
       O -5.15161e+01  2.79853e+00  5.15306e+01             
       H -5.82636e+01 -3.02124e+01  4.10428e+01             
       H -6.22380e+01  1.61776e+00  4.29774e+01             
       O -6.56854e+01 -1.58947e+01  4.67350e+01             
       H -6.49447e+01 -1.64645e+01  4.64891e+01             
       H -6.52132e+01 -1.53103e+01  4.73670e+01             
       O -6.21894e+01 -3.68739e+00  3.69156e+01             
       H -6.12068e+01 -1.60279e+01  3.70834e+01             
       H -6.24224e+01 -4.64455e+00  3.68412e+01             
       O -6.97988e+01 -1.90664e+01  5.27352e+01             
       H -6.93234e+01 -1.88241e+01  5.18868e+01             
       H -6.90180e+01 -1.93861e+01  5.32207e+01             
       O -5.87067e+01 -1.84891e+01  5.65702e+01             
       H -5.86938e+01 -1.82408e+01  5.56641e+01             
       H -5.78491e+01 -1.84090e+01  5.70382e+01             
       O -7.24883e+01 -2.05429e+01  3.95553e+01             
       H -7.16381e+01 -2.01084e+01  5.17084e+01             
       H -6.63673e+01 -3.68745e+01  4.12754e+01             
       O -5.44055e+01 -2.08063e+01  6.14562e+01             
       H -5.40327e+01 -2.15854e+01  6.18772e+01             
       H -5.38008e+01 -2.04324e+01  6.07741e+01             
       O -5.95895e+01 -1.93488e+01  4.73793e+01             
       H -5.90316e+01 -1.85726e+01  4.76473e+01             
       H -5.89652e+01 -1.99187e+01  4.68753e+01             
       O -7.65393e+01 -1.65211e+01  5.58552e+01             
       H -7.58056e+01 -1.63243e+01  5.52789e+01             
       H -7.62319e+01 -1.65588e+01  5.67655e+01             
       O -5.60302e+01 -2.22633e+01  4.73864e+01             
       H -5.55431e+01 -2.17974e+01  4.81065e+01             
       H -5.53448e+01 -2.23907e+01  4.67518e+01             
       O -7.14555e+01 -1.39226e+01  2.65623e+01             
       H -7.12703e+01 -1.30421e+01  2.60692e+01             
       H -7.06432e+01 -1.41801e+01  2.70322e+01             
       O -6.03299e+01 -2.24523e+01  2.05528e+01             
       H -3.90159e+01 -8.67930e+00  3.94485e+01             
       H -5.96923e+01 -2.32052e+01  2.03083e+01             
       O -6.73986e+01 -1.68614e+01  5.20395e+01             
       H -6.73489e+01 -1.74939e+01  5.27511e+01             
       H -6.65595e+01 -1.63034e+01  5.21120e+01             
       O -6.56517e+01 -1.44330e+01  6.84735e+01             
       H -6.49932e+01 -1.51667e+01  6.84555e+01             
       H -6.53569e+01 -1.37065e+01  6.91003e+01             
192                                                         
# CELL(abcABC):   12.41850    12.41850    12.41850    90.00000    90.00000    90.00000  Step:      200000  Bead:       0 x_centroid{angstrom}  cell{angstrom}   
       O -8.57461e+01 -1.15703e+01  7.07643e+01             
       H -8.50179e+01 -1.14723e+01  7.01973e+01             
       H -8.54157e+01 -1.09155e+01  7.14731e+01             
       O -7.29872e+01 -1.13385e+01  6.44893e+01             
       H -7.33467e+01 -1.76395e+01  5.85908e+01             
       H -7.24664e+01 -1.19658e+01  6.38788e+01             
       O -7.58389e+01 -2.82795e+01  5.56090e+01             
       H -7.49000e+01 -1.54915e+01  5.53976e+01             
       H -7.58433e+01 -2.91166e+01  5.51687e+01             
       O -7.00992e+01 -2.42792e+01  6.13685e+01             
       H -6.92459e+01 -2.40901e+01  6.18507e+01             
       H -6.98568e+01 -2.47261e+01  6.05250e+01             
       O -6.25020e+01 -2.50632e+01  5.40037e+01             
       H -6.18529e+01 -2.56777e+01  5.44070e+01             
       H -6.19676e+01 -2.44501e+01  5.33793e+01             
       O -6.76555e+01 -2.12258e+01  6.77534e+01             
       H -6.69897e+01 -2.15877e+01  6.71065e+01             
       H -6.72187e+01 -2.11149e+01  6.86146e+01             
       O -7.30723e+01 -2.16072e+01  4.27384e+01             
       H -7.30325e+01 -2.18994e+01  4.18361e+01             
       H -6.19337e+01  2.76353e+00  5.60605e+01             
       O -5.63107e+01 -1.56332e+01  7.28135e+01             
       H -5.59720e+01 -1.54447e+01  7.37131e+01             
       H -5.53559e+01 -2.83578e+01  7.24986e+01             
       O -8.04114e+01 -1.22526e+01  4.58452e+01             
       H -8.00028e+01 -1.26034e+01  4.67121e+01             
       H -7.97292e+01 -1.25504e+01  4.51975e+01             
       O -7.35205e+01 -2.70190e+01  5.49275e+01             
       H -7.29580e+01 -2.75529e+01  5.42569e+01             
       H -7.28464e+01 -2.67917e+01  5.55955e+01             
       O -7.88942e+01 -9.04623e+00  6.23191e+01             
       H -7.82639e+01 -8.88413e+00  6.30127e+01             
       H -7.82383e+01 -9.24093e+00  6.16357e+01             
       O -7.41352e+01 -1.42347e+01  4.95712e+01             
       H -7.33141e+01 -1.40897e+01  5.00363e+01             
       H -6.58625e+01 -1.42076e+01  4.75422e+01             
       O -7.02511e+01 -3.31445e+01  4.70640e+01             
       H -6.97118e+01 -3.28573e+01  4.78467e+01             
       H -6.77457e+01 -2.87145e+01  6.33247e+01             
       O -8.12924e+01 -1.88787e+01  5.39154e+01             
       H -8.09524e+01 -1.94818e+01  5.46316e+01             
       H -8.04884e+01 -1.83288e+01  5.37141e+01             
       O -6.58524e+01 -2.57123e+01  6.34659e+01             
       H -6.54979e+01 -2.61226e+01  6.42601e+01             
       H -6.50648e+01 -2.53371e+01  6.30363e+01             
       O -7.59682e+01 -1.22012e+01  6.22341e+01             
       H -7.56834e+01 -1.13382e+01  6.25090e+01             
       H -7.52308e+01 -1.28299e+01  6.23511e+01             
       O -7.20067e+01 -9.97804e+00  4.79071e+01             
       H -7.13685e+01 -2.30506e+01  4.83589e+01             
       H -7.12977e+01 -9.24532e+00  4.76018e+01             
       O -7.39465e+01 -2.69254e+01  4.66782e+01             
       H -7.36755e+01 -2.60130e+01  4.66659e+01             
       H -7.31884e+01 -2.75012e+01  4.64590e+01             
       O -8.00225e+01 -1.50119e+01  5.61980e+01             
       H -7.95241e+01 -1.56575e+01  5.55853e+01             
       H -7.92650e+01 -1.43438e+01  5.66106e+01             
       O -7.36354e+01  4.12122e+00  4.93567e+01             
       H -5.77303e+01 -1.80908e+01  5.47556e+01             
       H -7.29904e+01  4.79577e+00  4.97419e+01             
       O -6.71763e+01 -1.80257e+01  6.30418e+01             
       H -7.15578e+01 -2.42572e+01  5.61690e+01             
       H -7.93645e+01 -1.80758e+01  6.40264e+01             
       O -6.80486e+01 -3.05512e+01  5.82385e+01             
       H -6.76268e+01 -3.13837e+01  5.79525e+01             
       H -6.73233e+01 -3.01211e+01  5.87653e+01             
       O -7.65103e+01 -2.42124e+01  5.96437e+01             
       H -7.60304e+01 -2.44051e+01  5.88051e+01             
       H -7.60623e+01 -2.45962e+01  6.04015e+01             
       O -7.03114e+01 -4.24173e+01  6.02750e+01             
       H -6.98601e+01 -4.29242e+01  5.95976e+01             
       H -6.96669e+01 -4.15756e+01  7.28563e+01             
       O -7.50821e+01 -6.10180e+00  5.39435e+01             
       H -7.46153e+01 -5.80151e+00  5.30845e+01             
       H -7.43488e+01 -6.29179e+00  5.46080e+01             
       O -6.49454e+01 -2.15242e+01  6.01527e+01             
       H -6.42254e+01 -2.08470e+01  6.01577e+01             
       H -6.44155e+01 -2.22980e+01  5.98657e+01             
       O -7.14769e+01 -2.59272e+01  6.87513e+01             
       H -7.11093e+01 -2.60927e+01  6.96675e+01             
       H -7.07004e+01 -2.60980e+01  6.81943e+01             
       O -8.73545e+01 -2.24112e+01  5.11516e+01             
       H -8.69939e+01 -2.16171e+01  5.06399e+01             
       H -8.66087e+01 -2.28196e+01  5.15853e+01             
       O -7.20420e+01 -3.59786e+00  6.57598e+01             
       H -7.12612e+01 -3.28319e+00  6.52066e+01             
       H -7.16902e+01 -4.15879e+00  6.64406e+01             
       O -7.35722e+01 -1.72116e+01  5.16727e+01             
       H -7.29791e+01 -1.77109e+01  5.09996e+01             
       H -7.28922e+01 -1.67944e+01  3.98584e+01             
       O -7.02454e+01 -1.37022e+01  3.39907e+01             
       H -6.97945e+01 -1.45201e+01  3.41910e+01             
       H -8.19299e+01 -1.31629e+01  3.36138e+01             
       O -5.94867e+01 -1.86898e+01  3.78459e+01             
       H -5.88160e+01 -1.91450e+01  3.85225e+01             
       H -5.88358e+01 -1.83569e+01  3.71537e+01             
       O -6.93883e+01 -2.59671e+01  4.21660e+01             
       H -6.85903e+01 -2.61782e+01  4.26811e+01             
       H -6.91490e+01 -2.51850e+01  5.40312e+01             
       O -6.65797e+01 -1.74893e+01  4.13001e+01             
       H -7.61351e+01 -1.55942e+01  4.49415e+01             
       H -6.58836e+01 -1.67657e+01  4.11284e+01             
       O -7.00668e+01 -2.72143e+01  6.44704e+01             
       H -6.92502e+01 -2.75395e+01  6.39753e+01             
       H -6.96973e+01 -2.68311e+01  6.52659e+01             
       O -5.97641e+01 -1.65602e+01  4.63049e+01             
       H -5.91690e+01 -1.62751e+01  4.55343e+01             
       H -5.89826e+01 -1.69912e+01  4.69079e+01             
       O -6.39417e+01 -3.24744e+01  5.69993e+01             
       H -6.33035e+01 -3.31893e+01  5.68437e+01             
       H -6.33950e+01 -3.16460e+01  5.71520e+01             
       O -6.85417e+01 -1.14639e+01  6.54187e+01             
       H -6.85368e+01 -1.13630e+01  6.44569e+01             
       H -6.76925e+01 -1.10597e+01  6.57744e+01             
       O -5.77389e+01  4.80776e+00  7.66099e+01             
       H -5.70999e+01  4.63570e+00  7.58501e+01             
       H -5.72186e+01  5.20055e+00  7.73534e+01             
       O -6.79732e+01 -2.78406e+01  6.31165e+01             
       H -7.25556e+01 -2.22807e+01  4.31969e+01             
       H -6.72792e+01 -2.72431e+01  6.33139e+01             
       O -7.41519e+01 -1.81607e+01  5.81597e+01             
       H -6.58958e+01 -1.82027e+01  4.16572e+01             
       H -7.37823e+01 -1.82984e+01  5.72310e+01             
       O -6.61145e+01 -1.33038e+01  4.76280e+01             
       H -7.30872e+01 -9.06307e+00  4.89507e+01             
       H -6.53196e+01 -1.27130e+01  4.73629e+01             
       O -6.62263e+01 -2.89674e+01  5.96818e+01             
       H -7.81071e+01 -2.93170e+01  7.28953e+01             
       H -5.98613e+01 -1.08556e+01  6.49295e+01             
       O -1.00558e+02 -1.60578e+01  6.32329e+01             
       H -1.00039e+02 -1.53085e+01  6.28852e+01             
       H -9.97774e+01 -1.65279e+01  6.36858e+01             
       O -7.09315e+01 -3.00299e+01  5.51395e+01             
       H -7.05756e+01 -2.95349e+01  5.59375e+01             
       H -6.62735e+01 -1.79279e+01  6.26276e+01             
       O -7.64436e+01 -1.50113e+01  4.56868e+01             
       H -7.55777e+01 -1.47775e+01  4.60916e+01             
       H -8.38503e+01 -2.51972e+01  2.50663e+01             
       O -8.04714e+01 -2.35307e+01  5.04134e+01             
       H -7.99542e+01 -2.26684e+01  5.03568e+01             
       H -7.98796e+01 -2.41937e+01  5.07387e+01             
       O -6.44626e+01 -2.40602e+01  4.30080e+01             
       H -6.37989e+01 -2.46121e+01  4.25310e+01             
       H -6.38840e+01 -2.34515e+01  4.34697e+01             
       O -5.25793e+01 -2.78913e+01  5.32579e+01             
       H -5.22819e+01 -1.53376e+01  5.41284e+01             
       H -5.18927e+01 -2.81301e+01  5.25946e+01             
       O -6.57971e+01 -1.32964e+01  5.68764e+01             
       H -5.27816e+01 -1.27044e+01  5.63312e+01             
       H -6.51537e+01 -1.39311e+01  5.73603e+01             
       O -6.26335e+01  2.41735e+00  5.67027e+01             
       H -6.96725e+01 -3.33595e+01  4.62423e+01             
       H -7.39354e+01 -2.14341e+00  4.86431e+01             
       O -7.71947e+01 -2.11959e+01  5.21436e+01             
       H -7.62713e+01 -2.16052e+01  5.19793e+01             
       H -7.71318e+01 -2.05576e+01  5.29615e+01             
       O -7.30045e+01 -6.67604e+00  4.32202e+01             
       H -7.21039e+01 -1.86105e+01  4.31208e+01             
       H -7.26970e+01 -7.59901e+00  4.30232e+01             
       O -8.16210e+01 -2.23453e+01  5.72876e+01             
       H -8.09244e+01 -2.29276e+01  5.76651e+01             
       H -8.12205e+01 -2.21562e+01  5.64069e+01             
       O -6.87276e+01 -2.01678e+01  6.16762e+01             
       H -6.85009e+01 -1.92203e+01  6.17806e+01             
       H -6.77993e+01 -2.05887e+01  6.16008e+01             
       O -8.38173e+01 -2.33171e+01  4.39646e+01             
       H -8.28629e+01 -2.32097e+01  5.67960e+01             
       H -7.80541e+01 -4.10427e+01  4.65849e+01             
       O -6.49114e+01 -1.94182e+01  6.67277e+01             
       H -6.50217e+01 -1.99204e+01  6.75224e+01             
       H -6.39338e+01 -1.91742e+01  6.66471e+01             
       O -7.08930e+01 -2.23617e+01  5.31978e+01             
       H -7.06344e+01 -2.15010e+01  5.28349e+01             
       H -6.99806e+01 -2.28647e+01  5.33032e+01             
       O -8.79641e+01 -1.94639e+01  6.02419e+01             
       H -8.74086e+01 -1.92361e+01  5.94582e+01             
       H -8.73083e+01 -1.99263e+01  6.08516e+01             
       O -6.62517e+01 -2.26317e+01  5.36451e+01             
       H -6.57921e+01 -2.31945e+01  5.43291e+01             
       H -6.55029e+01 -2.22742e+01  5.30731e+01             
       O -8.22550e+01 -1.62746e+01  3.22840e+01             
       H -8.16002e+01 -1.56700e+01  3.18268e+01             
       H -8.16855e+01 -1.69191e+01  3.27280e+01             
       O -7.17789e+01 -2.55754e+01  2.58814e+01             
       H -4.96637e+01 -1.06453e+01  4.47198e+01             
       H -7.10165e+01 -2.60738e+01  2.63450e+01             
       O -7.88912e+01 -2.04703e+01  5.77241e+01             
       H -7.87178e+01 -2.09313e+01  5.85601e+01             
       H -7.79362e+01 -2.04188e+01  5.74123e+01             
       O -7.73014e+01 -1.74950e+01  7.42300e+01             
       H -7.67401e+01 -1.82270e+01  7.38288e+01             
       H -7.67485e+01 -1.69047e+01  7.47430e+01             
