12                                                          
# CELL(abcABC):  100.00000   100.00000   100.00000    90.00000    90.00000    90.00000  Step:           0  Bead:       0 x_centroid{angstrom}  cell{angstrom}   
       C -1.69042e+00 -2.90472e-01 -8.99088e-01             
       C -3.10064e-01  1.79870e-01 -3.01257e-01             
       O  7.05344e-01 -3.76302e-01 -6.23719e-01             
       N -2.42157e-01  1.28960e+00  5.24873e-01             
       C  1.03165e+00  1.47329e+00  1.32192e+00             
       H -2.01491e+00 -1.19378e+00 -4.29314e-01             
       H -2.45405e+00  5.18362e-01 -8.46549e-01             
       H -1.49999e+00 -4.03841e-01 -1.97079e+00             
       H  1.31609e+00  5.65612e-01  1.89338e+00             
       H  1.82044e+00  1.72579e+00  6.12034e-01             
       H  8.57883e-01  2.29028e+00  2.02505e+00             
       H -1.12574e+00  1.72130e+00  8.73127e-01             
12                                                          
# CELL(abcABC):  100.00000   100.00000   100.00000    90.00000    90.00000    90.00000  Step:      250000  Bead:       0 x_centroid{angstrom}  cell{angstrom}   
       C -2.89103e+01 -1.76552e+01 -1.36743e+01             
       C -3.04001e+01 -1.74956e+01 -1.40450e+01             
       O -3.11898e+01 -1.83762e+01 -1.38907e+01             
       N -3.07677e+01 -1.62970e+01 -1.45327e+01             
       C -3.22305e+01 -1.59188e+01 -1.48409e+01             
       H -2.83696e+01 -1.72894e+01 -1.45415e+01             
       H -2.86122e+01 -1.70069e+01 -1.28369e+01             
       H -2.86336e+01 -1.87009e+01 -1.35509e+01             
       H -3.27013e+01 -1.66045e+01 -1.56248e+01             
       H -3.27761e+01 -1.58680e+01 -1.38979e+01             
       H -3.23013e+01 -1.48947e+01 -1.52583e+01             
       H -3.01342e+01 -1.55299e+01 -1.44271e+01             
