12                                                          
# CELL(abcABC):  100.00000   100.00000   100.00000    90.00000    90.00000    90.00000  Step:           0  Bead:       0 x_centroid{angstrom}  cell{angstrom}   
       C  9.45081e-02  1.26757e+00  1.69777e+00             
       C -1.39392e-01  9.32928e-01  2.23923e-01             
       O -4.43897e-01  1.75990e+00 -6.20172e-01             
       N  1.36792e-01 -3.64857e-01 -6.68048e-03             
       C -1.07156e-01 -1.19782e+00 -1.21786e+00             
       H -5.31837e-01  2.05419e+00  2.18382e+00             
       H -1.87383e-01  3.85613e-01  2.38561e+00             
       H  1.21719e+00  1.47801e+00  1.91719e+00             
       H  6.06152e-01 -2.04421e+00 -1.32320e+00             
       H -1.07924e+00 -1.71231e+00 -1.23431e+00             
       H -4.16647e-02 -5.87122e-01 -2.13844e+00             
       H  1.67432e-01 -9.80719e-01  7.64068e-01             
12                                                          
# CELL(abcABC):  100.00000   100.00000   100.00000    90.00000    90.00000    90.00000  Step:      250000  Bead:       0 x_centroid{angstrom}  cell{angstrom}   
       C -2.53076e+01 -1.33506e+01 -9.99284e+00             
       C -2.41202e+01 -1.34266e+01 -1.08180e+01             
       O -2.37554e+01 -1.44685e+01 -1.14258e+01             
       N -2.34452e+01 -1.22656e+01 -1.08926e+01             
       C -2.22177e+01 -1.22140e+01 -1.17169e+01             
       H -2.53604e+01 -1.24606e+01 -9.34136e+00             
       H -2.61449e+01 -1.33794e+01 -1.08153e+01             
       H -2.54503e+01 -1.42911e+01 -9.42612e+00             
       H -2.13915e+01 -1.25013e+01 -1.11122e+01             
       H -2.23759e+01 -1.28917e+01 -1.25665e+01             
       H -2.20733e+01 -1.11825e+01 -1.19848e+01             
       H -2.36133e+01 -1.15272e+01 -1.01791e+01             
