12                                                          
# CELL(abcABC):  100.00000   100.00000   100.00000    90.00000    90.00000    90.00000  Step:           0  Bead:       0 x_centroid{angstrom}  cell{angstrom}   
       C -3.18024e+00 -2.43427e+00 -1.55656e+00             
       C -2.68768e+00 -1.11657e+00 -9.57710e-01             
       O -3.08504e+00 -8.38187e-01  1.90995e-01             
       N -1.71121e+00 -4.26701e-01 -1.68845e+00             
       C -9.37462e-01  7.10152e-01 -1.08602e+00             
       H -4.27252e+00 -2.33699e+00 -1.44267e+00             
       H -2.92603e+00 -2.61027e+00 -2.62450e+00             
       H -2.65229e+00 -3.24599e+00 -9.39645e-01             
       H -4.58481e-01  1.33159e+00 -1.82632e+00             
       H -1.59351e+00  1.30263e+00 -4.46764e-01             
       H -1.98626e-01  2.52226e-01 -3.95914e-01             
       H -1.65127e+00 -6.08722e-01 -2.63319e+00             
12                                                          
# CELL(abcABC):  100.00000   100.00000   100.00000    90.00000    90.00000    90.00000  Step:      250000  Bead:       0 x_centroid{angstrom}  cell{angstrom}   
       C -3.62850e+01 -1.94113e+01 -1.61171e+01             
       C -3.47944e+01 -1.96247e+01 -1.59713e+01             
       O -3.41133e+01 -2.06372e+01 -1.62776e+01             
       N -3.41553e+01 -1.84117e+01 -1.56122e+01             
       C -3.27312e+01 -1.82657e+01 -1.56065e+01             
       H -3.65700e+01 -1.84624e+01 -1.55149e+01             
       H -3.65869e+01 -1.94372e+01 -1.72166e+01             
       H -3.67573e+01 -2.03148e+01 -1.56975e+01             
       H -3.23120e+01 -1.92303e+01 -1.58793e+01             
       H -3.24429e+01 -1.74253e+01 -1.63010e+01             
       H -3.24991e+01 -1.79599e+01 -1.45690e+01             
       H -3.47843e+01 -1.76216e+01 -1.53524e+01             
