12                                                          
# CELL(abcABC):  100.00000   100.00000   100.00000    90.00000    90.00000    90.00000  Step:           0  Bead:       0 x_centroid{angstrom}  cell{angstrom}   
       C -1.43532e-01  6.35253e-01 -1.85466e+00             
       C -1.02517e-01  7.83800e-01 -3.48340e-01             
       O -1.80884e-01  1.84871e+00  1.62073e-01             
       N  5.93070e-02 -4.12227e-01  3.19783e-01             
       C -9.58521e-02 -5.13684e-01  1.73977e+00             
       H -1.17890e+00  5.71689e-01 -2.26895e+00             
       H  3.86618e-01  1.47959e+00 -2.28282e+00             
       H  4.68425e-01 -1.86551e-01 -2.22489e+00             
       H -1.12074e+00 -2.29876e-01  2.00593e+00             
       H  6.36674e-02 -1.52906e+00  2.22807e+00             
       H  6.00085e-01  1.71498e-01  2.25281e+00             
       H  9.40051e-02 -1.27674e+00 -2.13220e-01             
12                                                          
# CELL(abcABC):  100.00000   100.00000   100.00000    90.00000    90.00000    90.00000  Step:      250000  Bead:       0 x_centroid{angstrom}  cell{angstrom}   
       C -5.71515e+01 -3.29194e+01 -2.67906e+01             
       C -5.85036e+01 -3.30950e+01 -2.74215e+01             
       O -5.90064e+01 -3.22885e+01 -2.81903e+01             
       N -5.92570e+01 -3.41542e+01 -2.69710e+01             
       C -6.07170e+01 -3.43193e+01 -2.72113e+01             
       H -5.62979e+01 -3.23685e+01 -2.72881e+01             
       H -5.73619e+01 -3.24013e+01 -2.58179e+01             
       H -5.67813e+01 -3.39253e+01 -2.65891e+01             
       H -6.13442e+01 -3.36321e+01 -2.66120e+01             
       H -6.08963e+01 -3.42979e+01 -2.83165e+01             
       H -6.08670e+01 -3.52666e+01 -2.68778e+01             
       H -5.89123e+01 -3.46079e+01 -2.61585e+01             
