12                                                          
# CELL(abcABC):  100.00000   100.00000   100.00000    90.00000    90.00000    90.00000  Step:           0  Bead:       0 x_centroid{angstrom}  cell{angstrom}   
       C -2.15845e-01 -1.41701e+00  7.45747e-01             
       C -8.65373e-01 -3.01727e-01 -1.03932e-01             
       O -1.97937e+00 -4.53461e-01 -5.30153e-01             
       N -8.87741e-02  8.48553e-01 -2.06968e-01             
       C -3.78185e-01  1.84062e+00 -1.20123e+00             
       H -1.02352e+00 -1.55780e+00  1.54023e+00             
       H -4.59799e-02 -2.27663e+00  1.07368e-01             
       H  7.09619e-01 -1.17227e+00  1.26778e+00             
       H -1.35645e+00  1.58348e+00 -1.67650e+00             
       H -5.89406e-01  2.86224e+00 -6.98016e-01             
       H  4.05036e-01  1.82106e+00 -2.04628e+00             
       H  8.86140e-01  6.72591e-01 -7.55532e-02             
12                                                          
# CELL(abcABC):  100.00000   100.00000   100.00000    90.00000    90.00000    90.00000  Step:      250000  Bead:       0 x_centroid{angstrom}  cell{angstrom}   
       C -3.11414e+01 -1.80370e+01 -1.25704e+01             
       C -3.11707e+01 -1.71991e+01 -1.38643e+01             
       O -3.16244e+01 -1.60993e+01 -1.39529e+01             
       N -3.04655e+01 -1.77710e+01 -1.48955e+01             
       C -2.99677e+01 -1.70200e+01 -1.60379e+01             
       H -3.00960e+01 -1.83256e+01 -1.22977e+01             
       H -3.15407e+01 -1.72471e+01 -1.18279e+01             
       H -3.17547e+01 -1.88910e+01 -1.25944e+01             
       H -2.89227e+01 -1.71155e+01 -1.59189e+01             
       H -3.02774e+01 -1.74011e+01 -1.70112e+01             
       H -3.04165e+01 -1.60358e+01 -1.58231e+01             
       H -2.98596e+01 -1.86315e+01 -1.47091e+01             
