12                                                          
# CELL(abcABC):  100.00000   100.00000   100.00000    90.00000    90.00000    90.00000  Step:           0  Bead:       0 x_centroid{angstrom}  cell{angstrom}   
       C -5.41293e+00 -1.30762e+00 -5.29366e-01             
       C -4.73130e+00 -1.99643e+00 -1.72426e+00             
       O -5.43340e+00 -2.73120e+00 -2.37854e+00             
       N -3.45383e+00 -1.66915e+00 -1.99970e+00             
       C -2.78078e+00 -2.25695e+00 -3.17136e+00             
       H -4.95510e+00 -3.58706e-01 -2.13582e-01             
       H -6.42533e+00 -9.91414e-01 -8.14989e-01             
       H -5.40392e+00 -1.95791e+00  3.87791e-01             
       H -3.15708e+00 -3.29140e+00 -3.27138e+00             
       H -3.00055e+00 -1.63984e+00 -4.12985e+00             
       H -1.69827e+00 -2.19343e+00 -2.98310e+00             
       H -3.05187e+00 -1.01782e+00 -1.30266e+00             
12                                                          
# CELL(abcABC):  100.00000   100.00000   100.00000    90.00000    90.00000    90.00000  Step:      250000  Bead:       0 x_centroid{angstrom}  cell{angstrom}   
       C -3.80244e+01 -2.21371e+01 -1.65746e+01             
       C -3.71498e+01 -2.08992e+01 -1.67029e+01             
       O -3.70687e+01 -2.01171e+01 -1.57628e+01             
       N -3.66174e+01 -2.07146e+01 -1.79457e+01             
       C -3.56496e+01 -1.96364e+01 -1.83470e+01             
       H -3.72470e+01 -2.29664e+01 -1.64367e+01             
       H -3.87204e+01 -2.18984e+01 -1.57141e+01             
       H -3.86703e+01 -2.24096e+01 -1.73714e+01             
       H -3.47008e+01 -2.00149e+01 -1.88327e+01             
       H -3.61291e+01 -1.87774e+01 -1.88430e+01             
       H -3.53458e+01 -1.92204e+01 -1.73754e+01             
       H -3.70538e+01 -2.12206e+01 -1.87253e+01             
