12                                                          
# CELL(abcABC):  100.00000   100.00000   100.00000    90.00000    90.00000    90.00000  Step:           0  Bead:       0 x_centroid{angstrom}  cell{angstrom}   
       C -4.45786e+00 -1.73707e+00 -1.84538e+00             
       C -3.16029e+00 -1.34469e+00 -1.09547e+00             
       O -2.78433e+00 -1.77140e+00  3.76975e-03             
       N -2.39653e+00 -4.82102e-01 -1.80379e+00             
       C -1.11260e+00 -7.89206e-02 -1.37465e+00             
       H -5.38946e+00 -1.49256e+00 -1.19759e+00             
       H -4.58243e+00 -1.20465e+00 -2.76361e+00             
       H -4.35376e+00 -2.83777e+00 -2.04526e+00             
       H -5.85092e-01  5.98056e-01 -2.10225e+00             
       H -1.13251e+00  4.91693e-01 -4.66142e-01             
       H -3.67442e-01 -9.16742e-01 -1.28639e+00             
       H -2.74814e+00 -1.80676e-01 -2.71711e+00             
12                                                          
# CELL(abcABC):  100.00000   100.00000   100.00000    90.00000    90.00000    90.00000  Step:      250000  Bead:       0 x_centroid{angstrom}  cell{angstrom}   
       C -3.49488e+01 -2.10263e+01 -1.62035e+01             
       C -3.64244e+01 -2.06954e+01 -1.65665e+01             
       O -3.73738e+01 -2.10893e+01 -1.58880e+01             
       N -3.65586e+01 -1.99433e+01 -1.77402e+01             
       C -3.79231e+01 -1.99374e+01 -1.83288e+01             
       H -3.41680e+01 -2.02968e+01 -1.65994e+01             
       H -3.48569e+01 -2.11576e+01 -1.50675e+01             
       H -3.46302e+01 -2.19298e+01 -1.66495e+01             
       H -3.77821e+01 -1.93630e+01 -1.92365e+01             
       H -3.81943e+01 -2.09933e+01 -1.86756e+01             
       H -3.86581e+01 -1.96336e+01 -1.75629e+01             
       H -3.57142e+01 -2.01290e+01 -1.82660e+01             
