12                                                          
# CELL(abcABC):  100.00000   100.00000   100.00000    90.00000    90.00000    90.00000  Step:           0  Bead:       0 x_centroid{angstrom}  cell{angstrom}   
       C -4.76362e+00 -1.51313e+00 -1.65518e+00             
       C -3.32888e+00 -1.43444e+00 -1.18344e+00             
       O -2.91446e+00 -2.07734e+00 -2.09195e-01             
       N -2.54833e+00 -5.92402e-01 -1.97931e+00             
       C -1.15574e+00 -2.65119e-01 -1.49054e+00             
       H -5.33397e+00 -7.65048e-01 -1.10785e+00             
       H -4.77532e+00 -1.29276e+00 -2.74769e+00             
       H -5.20965e+00 -2.50946e+00 -1.54093e+00             
       H -1.06012e+00  7.86683e-01 -1.34508e+00             
       H -1.03908e+00 -8.61159e-01 -5.53425e-01             
       H -4.18917e-01 -7.66933e-01 -2.11528e+00             
       H -2.89198e+00  2.86114e-02 -2.71595e+00             
12                                                          
# CELL(abcABC):  100.00000   100.00000   100.00000    90.00000    90.00000    90.00000  Step:      250000  Bead:       0 x_centroid{angstrom}  cell{angstrom}   
       C -3.31526e+01 -1.91540e+01 -1.58891e+01             
       C -3.45773e+01 -1.95598e+01 -1.64313e+01             
       O -3.48599e+01 -1.97595e+01 -1.76702e+01             
       N -3.55148e+01 -1.96326e+01 -1.54540e+01             
       C -3.69465e+01 -1.99596e+01 -1.55981e+01             
       H -3.27788e+01 -1.95635e+01 -1.48889e+01             
       H -3.23454e+01 -1.94730e+01 -1.66973e+01             
       H -3.30360e+01 -1.81165e+01 -1.58061e+01             
       H -3.74638e+01 -1.91964e+01 -1.61743e+01             
       H -3.71786e+01 -2.09989e+01 -1.60287e+01             
       H -3.73547e+01 -1.99134e+01 -1.45132e+01             
       H -3.52244e+01 -1.93776e+01 -1.45032e+01             
