12                                                          
# CELL(abcABC):  100.00000   100.00000   100.00000    90.00000    90.00000    90.00000  Step:           0  Bead:       0 x_centroid{angstrom}  cell{angstrom}   
       C  7.80706e-01  2.19211e+00  1.63707e-02             
       C  3.12751e-01  7.25086e-01  2.68808e-02             
       O  1.11987e+00 -1.91683e-01 -1.10601e-01             
       N -1.04078e+00  5.07428e-01  1.66820e-01             
       C -1.59583e+00 -8.78841e-01 -5.97937e-03             
       H  1.64806e+00  2.30446e+00 -7.62121e-01             
       H -9.59695e-02  2.82802e+00 -1.86202e-01             
       H  1.20143e+00  2.33356e+00  9.99909e-01             
       H -2.19567e+00 -1.16333e+00  8.63134e-01             
       H -2.32535e+00 -1.01726e+00 -8.41198e-01             
       H -7.54328e-01 -1.48146e+00 -1.62289e-01             
       H -1.61412e+00  1.31428e+00  8.03671e-02             
12                                                          
# CELL(abcABC):  100.00000   100.00000   100.00000    90.00000    90.00000    90.00000  Step:      250000  Bead:       0 x_centroid{angstrom}  cell{angstrom}   
       C -4.59262e+01 -2.65738e+01 -2.02479e+01             
       C -4.48112e+01 -2.57044e+01 -2.05612e+01             
       O -4.36207e+01 -2.60500e+01 -2.04174e+01             
       N -4.51892e+01 -2.44955e+01 -2.11584e+01             
       C -4.42990e+01 -2.33057e+01 -2.12381e+01             
       H -4.55400e+01 -2.76527e+01 -2.01409e+01             
       H -4.62772e+01 -2.63546e+01 -1.91750e+01             
       H -4.67782e+01 -2.65316e+01 -2.09052e+01             
       H -4.41540e+01 -2.28259e+01 -2.02843e+01             
       H -4.32944e+01 -2.35477e+01 -2.16535e+01             
       H -4.47265e+01 -2.26629e+01 -2.20545e+01             
       H -4.61679e+01 -2.43660e+01 -2.13220e+01             
