12                                                          
# CELL(abcABC):  100.00000   100.00000   100.00000    90.00000    90.00000    90.00000  Step:           0  Bead:       0 x_centroid{angstrom}  cell{angstrom}   
       C -6.96503e-01 -7.40463e-01  1.32213e+00             
       C  6.82445e-03  1.07431e-01  3.31299e-01             
       O  1.24172e+00  1.60226e-01  3.00109e-01             
       N -7.97116e-01  8.53058e-01 -5.02896e-01             
       C -2.13451e-01  1.85640e+00 -1.37397e+00             
       H -1.15969e+00 -8.68266e-02  2.11629e+00             
       H -1.50774e+00 -1.36845e+00  9.51911e-01             
       H -6.45928e-02 -1.26722e+00  1.98944e+00             
       H -2.97263e-01  1.58327e+00 -2.47022e+00             
       H -7.23554e-01  2.87982e+00 -1.22013e+00             
       H  8.62285e-01  1.88828e+00 -1.05453e+00             
       H -1.79399e+00  8.03939e-01 -4.17308e-01             
12                                                          
# CELL(abcABC):  100.00000   100.00000   100.00000    90.00000    90.00000    90.00000  Step:      250000  Bead:       0 x_centroid{angstrom}  cell{angstrom}   
       C -3.26147e+01 -1.84152e+01 -1.34835e+01             
       C -3.13569e+01 -1.77703e+01 -1.40633e+01             
       O -3.01914e+01 -1.80133e+01 -1.37305e+01             
       N -3.15629e+01 -1.68003e+01 -1.50206e+01             
       C -3.05630e+01 -1.62909e+01 -1.59181e+01             
       H -3.23424e+01 -1.93287e+01 -1.28437e+01             
       H -3.31391e+01 -1.77044e+01 -1.27935e+01             
       H -3.32099e+01 -1.87371e+01 -1.43714e+01             
       H -3.03605e+01 -1.69111e+01 -1.67847e+01             
       H -3.08507e+01 -1.52161e+01 -1.61106e+01             
       H -2.96266e+01 -1.62463e+01 -1.53497e+01             
       H -3.24658e+01 -1.63657e+01 -1.51281e+01             
