12                                                          
# CELL(abcABC):  100.00000   100.00000   100.00000    90.00000    90.00000    90.00000  Step:           0  Bead:       0 x_centroid{angstrom}  cell{angstrom}   
       C -3.84099e-01 -7.70017e-01  1.41196e+00             
       C  8.92049e-02  9.31811e-02  3.16135e-01             
       O  1.28145e+00  2.32734e-01  6.90431e-03             
       N -8.54141e-01  8.22397e-01 -3.34406e-01             
       C -5.87269e-01  1.85563e+00 -1.31046e+00             
       H -1.32936e+00 -4.37030e-01  1.83176e+00             
       H -3.96741e-01 -1.83505e+00  1.09155e+00             
       H  3.76495e-01 -7.62593e-01  2.19383e+00             
       H -1.53114e+00  2.25919e+00 -1.71193e+00             
       H -1.56069e-01  2.70369e+00 -7.70596e-01             
       H  9.05235e-02  1.58513e+00 -2.07201e+00             
       H -1.82596e+00  7.25337e-01  3.84099e-04             
12                                                          
# CELL(abcABC):  100.00000   100.00000   100.00000    90.00000    90.00000    90.00000  Step:      250000  Bead:       0 x_centroid{angstrom}  cell{angstrom}   
       C -5.27216e+01 -2.83194e+01 -2.54643e+01             
       C -5.26601e+01 -2.96562e+01 -2.47248e+01             
       O -5.16406e+01 -3.01884e+01 -2.42638e+01             
       N -5.38517e+01 -3.02005e+01 -2.45809e+01             
       C -5.40391e+01 -3.13000e+01 -2.37231e+01             
       H -5.25930e+01 -2.84878e+01 -2.66237e+01             
       H -5.36133e+01 -2.77171e+01 -2.52714e+01             
       H -5.18915e+01 -2.78023e+01 -2.51210e+01             
       H -5.32201e+01 -3.15602e+01 -2.30828e+01             
       H -5.49259e+01 -3.10827e+01 -2.30902e+01             
       H -5.42042e+01 -3.22013e+01 -2.42795e+01             
       H -5.46667e+01 -2.97633e+01 -2.49564e+01             
