12                                                          
# CELL(abcABC):  100.00000   100.00000   100.00000    90.00000    90.00000    90.00000  Step:           0  Bead:       0 x_centroid{angstrom}  cell{angstrom}   
       C -1.37324e+00  4.82008e-01 -1.41175e+00             
       C -2.18142e-01  4.00309e-01 -4.39095e-01             
       O  9.51848e-01  3.91869e-01 -8.81161e-01             
       N -4.62072e-01  4.04696e-01  9.02318e-01             
       C  6.15427e-01  5.89495e-01  1.85800e+00             
       H -1.59115e+00 -4.20274e-01 -2.01373e+00             
       H -2.35903e+00  6.07526e-01 -9.39920e-01             
       H -1.23170e+00  1.23020e+00 -2.13157e+00             
       H  1.35006e+00 -2.89236e-01  1.77576e+00             
       H  1.23267e+00  1.46609e+00  1.59441e+00             
       H  1.07146e-01  6.84693e-01  2.82900e+00             
       H -1.38014e+00  7.49537e-01  1.24651e+00             
12                                                          
# CELL(abcABC):  100.00000   100.00000   100.00000    90.00000    90.00000    90.00000  Step:      250000  Bead:       0 x_centroid{angstrom}  cell{angstrom}   
       C -2.34788e+01 -1.19118e+01 -8.92665e+00             
       C -2.28771e+01 -1.26427e+01 -1.01960e+01             
       O -2.18438e+01 -1.33341e+01 -1.01661e+01             
       N -2.36483e+01 -1.24522e+01 -1.13520e+01             
       C -2.33320e+01 -1.32378e+01 -1.25028e+01             
       H -2.43893e+01 -1.13084e+01 -9.18941e+00             
       H -2.37769e+01 -1.27106e+01 -8.21859e+00             
       H -2.27289e+01 -1.13292e+01 -8.38700e+00             
       H -2.22719e+01 -1.35680e+01 -1.23388e+01             
       H -2.39222e+01 -1.41841e+01 -1.25468e+01             
       H -2.33487e+01 -1.28943e+01 -1.34830e+01             
       H -2.44646e+01 -1.18415e+01 -1.13242e+01             
