12                                                          
# CELL(abcABC):  100.00000   100.00000   100.00000    90.00000    90.00000    90.00000  Step:           0  Bead:       0 x_centroid{angstrom}  cell{angstrom}   
       C -1.35377e+00  3.60321e-01  1.53648e+00             
       C -2.00108e-01  3.32723e-01  5.16055e-01             
       O  9.68727e-01  6.46896e-03  7.78665e-01             
       N -4.34880e-01  7.92580e-01 -7.96731e-01             
       C  5.25303e-01  7.70423e-01 -1.88810e+00             
       H -2.23704e+00  7.97725e-01  1.09849e+00             
       H -1.62233e+00 -6.59964e-01  1.77492e+00             
       H -1.01942e+00  1.00467e+00  2.38770e+00             
       H  3.82325e-01  1.70622e+00 -2.45688e+00             
       H  1.49579e+00  9.05189e-01 -1.43256e+00             
       H  4.35443e-01 -1.54600e-01 -2.58982e+00             
       H -1.32620e+00  1.25591e+00 -1.02969e+00             
12                                                          
# CELL(abcABC):  100.00000   100.00000   100.00000    90.00000    90.00000    90.00000  Step:      250000  Bead:       0 x_centroid{angstrom}  cell{angstrom}   
       C -4.44643e+01 -2.53606e+01 -1.90231e+01             
       C -4.33430e+01 -2.47636e+01 -1.97633e+01             
       O -4.21560e+01 -2.50051e+01 -1.95284e+01             
       N -4.35667e+01 -2.36541e+01 -2.05844e+01             
       C -4.24575e+01 -2.28569e+01 -2.10474e+01             
       H -4.50638e+01 -2.47263e+01 -1.83376e+01             
       H -4.53414e+01 -2.55601e+01 -1.97222e+01             
       H -4.41851e+01 -2.62368e+01 -1.84955e+01             
       H -4.16898e+01 -2.27321e+01 -2.03136e+01             
       H -4.20316e+01 -2.31466e+01 -2.20137e+01             
       H -4.28408e+01 -2.18166e+01 -2.11536e+01             
       H -4.44284e+01 -2.34936e+01 -2.10281e+01             
