12                                                          
# CELL(abcABC):  100.00000   100.00000   100.00000    90.00000    90.00000    90.00000  Step:           0  Bead:       0 x_centroid{angstrom}  cell{angstrom}   
       C -1.28014e+00 -7.72053e-01 -9.09979e-01             
       C -2.02548e-01  4.19817e-02 -2.37610e-01             
       O  1.00625e+00 -2.72349e-01 -2.93262e-01             
       N -5.11399e-01  1.15553e+00  4.65221e-01             
       C  5.01548e-01  2.08962e+00  1.01206e+00             
       H -8.05971e-01 -1.53701e+00 -1.48671e+00             
       H -1.90822e+00 -1.32635e+00 -1.26206e-01             
       H -2.00476e+00 -8.58322e-02 -1.33925e+00             
       H  9.84748e-01  1.67037e+00  1.91094e+00             
       H  1.20743e+00  2.19008e+00  2.36628e-01             
       H -1.67165e-02  3.01626e+00  1.19039e+00             
       H -1.44507e+00  1.54683e+00  4.15899e-01             
12                                                          
# CELL(abcABC):  100.00000   100.00000   100.00000    90.00000    90.00000    90.00000  Step:      250000  Bead:       0 x_centroid{angstrom}  cell{angstrom}   
       C -2.16883e+01 -1.00671e+01 -1.05072e+01             
       C -2.07189e+01 -1.09839e+01 -9.78050e+00             
       O -1.96256e+01 -1.04758e+01 -9.40043e+00             
       N -2.10553e+01 -1.22318e+01 -9.40665e+00             
       C -2.01579e+01 -1.29483e+01 -8.57599e+00             
       H -2.28254e+01 -1.03867e+01 -1.03147e+01             
       H -2.15545e+01 -9.04176e+00 -1.02116e+01             
       H -2.14800e+01 -1.00420e+01 -1.15425e+01             
       H -2.02387e+01 -1.28118e+01 -7.45038e+00             
       H -2.03128e+01 -1.40176e+01 -8.81615e+00             
       H -1.91755e+01 -1.24951e+01 -8.73520e+00             
       H -2.17181e+01 -1.28316e+01 -9.86441e+00             
