12                                                          
# CELL(abcABC):  100.00000   100.00000   100.00000    90.00000    90.00000    90.00000  Step:           0  Bead:       0 x_centroid{angstrom}  cell{angstrom}   
       C -9.19407e-01  2.67377e-01  1.70668e+00             
       C  2.07769e-02  4.57864e-01  4.96493e-01             
       O  1.22299e+00  3.73389e-01  5.65179e-01             
       N -6.79160e-01  6.58676e-01 -6.49431e-01             
       C -1.05305e-01  5.68920e-01 -1.98086e+00             
       H -4.31876e-01  5.01597e-01  2.60050e+00             
       H -1.76873e+00  9.12740e-01  1.54859e+00             
       H -1.26141e+00 -7.44130e-01  1.98730e+00             
       H -5.06046e-01  1.32079e+00 -2.69275e+00             
       H  1.00716e+00  7.23418e-01 -1.99978e+00             
       H -1.60410e-01 -4.45030e-01 -2.48057e+00             
       H -1.70480e+00  6.38290e-01 -5.58600e-01             
12                                                          
# CELL(abcABC):  100.00000   100.00000   100.00000    90.00000    90.00000    90.00000  Step:      250000  Bead:       0 x_centroid{angstrom}  cell{angstrom}   
       C -3.35224e+01 -1.93589e+01 -1.43984e+01             
       C -3.23477e+01 -1.84374e+01 -1.47357e+01             
       O -3.11817e+01 -1.87431e+01 -1.44333e+01             
       N -3.26214e+01 -1.72180e+01 -1.52961e+01             
       C -3.15028e+01 -1.63360e+01 -1.56211e+01             
       H -3.41120e+01 -1.92189e+01 -1.53480e+01             
       H -3.30252e+01 -2.03321e+01 -1.41825e+01             
       H -3.39677e+01 -1.90803e+01 -1.34530e+01             
       H -3.18942e+01 -1.54707e+01 -1.63102e+01             
       H -3.09835e+01 -1.59805e+01 -1.47367e+01             
       H -3.07831e+01 -1.69834e+01 -1.62473e+01             
       H -3.35311e+01 -1.68717e+01 -1.54999e+01             
