12                                                          
# CELL(abcABC):  100.00000   100.00000   100.00000    90.00000    90.00000    90.00000  Step:           0  Bead:       0 x_centroid{angstrom}  cell{angstrom}   
       C -3.44986e+00 -1.80681e+00  3.53426e-01             
       C -3.05088e+00 -1.53463e+00 -1.07869e+00             
       O -1.88663e+00 -1.34019e+00 -1.48530e+00             
       N -4.15522e+00 -1.41186e+00 -1.90320e+00             
       C -4.15362e+00 -9.73443e-01 -3.31662e+00             
       H -4.53074e+00 -2.02170e+00  4.23066e-01             
       H -2.78495e+00 -2.53439e+00  8.84911e-01             
       H -3.29020e+00 -8.67095e-01  9.33595e-01             
       H -3.18322e+00 -1.13587e+00 -3.76787e+00             
       H -4.92691e+00 -1.56167e+00 -3.83645e+00             
       H -4.38754e+00  9.22125e-02 -3.35482e+00             
       H -4.98204e+00 -1.84310e+00 -1.62020e+00             
12                                                          
# CELL(abcABC):  100.00000   100.00000   100.00000    90.00000    90.00000    90.00000  Step:      250000  Bead:       0 x_centroid{angstrom}  cell{angstrom}   
       C -5.41388e+01 -2.89569e+01 -2.61568e+01             
       C -5.37672e+01 -3.01813e+01 -2.53235e+01             
       O -5.26109e+01 -3.07473e+01 -2.53614e+01             
       N -5.47508e+01 -3.06497e+01 -2.44955e+01             
       C -5.45620e+01 -3.19352e+01 -2.36905e+01             
       H -5.51844e+01 -2.89323e+01 -2.66015e+01             
       H -5.39745e+01 -2.80358e+01 -2.55972e+01             
       H -5.34126e+01 -2.89576e+01 -2.69417e+01             
       H -5.53754e+01 -3.20151e+01 -2.29057e+01             
       H -5.46933e+01 -3.27908e+01 -2.43305e+01             
       H -5.36332e+01 -3.18512e+01 -2.31102e+01             
       H -5.57052e+01 -3.03401e+01 -2.46974e+01             
