12                                                          
# CELL(abcABC):  100.00000   100.00000   100.00000    90.00000    90.00000    90.00000  Step:           0  Bead:       0 x_centroid{angstrom}  cell{angstrom}   
       C -1.57116e+00  1.78449e+00 -4.64708e-01             
       C -9.76480e-01  3.61522e-01 -4.88205e-01             
       O  2.25595e-01  2.64147e-01 -6.80122e-01             
       N -1.77722e+00 -7.49392e-01 -3.44414e-01             
       C -1.17327e+00 -2.03934e+00 -1.80444e-01             
       H -2.22451e+00  1.88150e+00 -1.36045e+00             
       H -2.04437e+00  2.01584e+00  4.73192e-01             
       H -6.59507e-01  2.42533e+00 -5.94558e-01             
       H -1.98985e+00 -2.77823e+00 -2.52524e-01             
       H -4.02760e-01 -2.29131e+00 -9.89019e-01             
       H -6.10007e-01 -2.08184e+00  7.60642e-01             
       H -2.76964e+00 -6.63919e-01 -1.40381e-01             
12                                                          
# CELL(abcABC):  100.00000   100.00000   100.00000    90.00000    90.00000    90.00000  Step:      250000  Bead:       0 x_centroid{angstrom}  cell{angstrom}   
       C -4.06995e+01 -2.24025e+01 -2.04363e+01             
       C -4.01299e+01 -2.27720e+01 -1.90956e+01             
       O -3.93019e+01 -2.36351e+01 -1.87933e+01             
       N -4.07272e+01 -2.20460e+01 -1.81329e+01             
       C -4.03419e+01 -2.22091e+01 -1.67206e+01             
       H -4.00552e+01 -2.15494e+01 -2.09260e+01             
       H -4.03852e+01 -2.32715e+01 -2.10955e+01             
       H -4.17585e+01 -2.21741e+01 -2.05247e+01             
       H -3.92891e+01 -2.21345e+01 -1.66937e+01             
       H -4.09158e+01 -2.15359e+01 -1.61181e+01             
       H -4.05082e+01 -2.31731e+01 -1.63339e+01             
       H -4.16014e+01 -2.15626e+01 -1.83408e+01             
