12                                                          
# CELL(abcABC):  100.00000   100.00000   100.00000    90.00000    90.00000    90.00000  Step:           0  Bead:       0 x_centroid{angstrom}  cell{angstrom}   
       C  7.86813e-01 -1.21894e+00 -1.43603e-01             
       C  3.24547e-01  2.14083e-01  6.07960e-02             
       O  1.13364e+00  1.14525e+00  2.00933e-01             
       N -1.02215e+00  3.78795e-01 -2.46368e-02             
       C -1.64615e+00  1.74296e+00 -1.67297e-02             
       H  1.85949e+00 -1.20661e+00 -1.27669e-01             
       H  4.25052e-01 -1.78454e+00  6.62370e-01             
       H  4.48367e-01 -1.71368e+00 -1.07891e+00             
       H -1.01610e+00  2.29212e+00  6.41211e-01             
       H -1.57624e+00  2.29972e+00 -9.52643e-01             
       H -2.69076e+00  1.67705e+00  2.86775e-01             
       H -1.67709e+00 -3.98081e-01 -9.50513e-02             
12                                                          
# CELL(abcABC):  100.00000   100.00000   100.00000    90.00000    90.00000    90.00000  Step:      250000  Bead:       0 x_centroid{angstrom}  cell{angstrom}   
       C -4.67996e+01 -2.69067e+01 -2.37702e+01             
       C -4.71883e+01 -2.67872e+01 -2.23140e+01             
       O -4.62971e+01 -2.66767e+01 -2.15076e+01             
       N -4.85099e+01 -2.68594e+01 -2.19583e+01             
       C -4.88086e+01 -2.67983e+01 -2.05349e+01             
       H -4.57079e+01 -2.68269e+01 -2.39517e+01             
       H -4.70624e+01 -2.77673e+01 -2.43543e+01             
       H -4.73440e+01 -2.60372e+01 -2.41451e+01             
       H -4.85304e+01 -2.77798e+01 -2.00403e+01             
       H -4.82064e+01 -2.60033e+01 -2.00777e+01             
       H -4.98724e+01 -2.64432e+01 -2.03284e+01             
       H -4.92422e+01 -2.68308e+01 -2.26499e+01             
