12                                                          
# CELL(abcABC):  100.00000   100.00000   100.00000    90.00000    90.00000    90.00000  Step:           0  Bead:       0 x_centroid{angstrom}  cell{angstrom}   
       C  6.47223e-01 -1.26974e+00  2.15722e-01             
       C  2.83787e-01  1.56724e-01  1.41333e-02             
       O  1.14709e+00  1.07159e+00 -8.49071e-02             
       N -1.02571e+00  4.68802e-01  5.30381e-02             
       C -1.50113e+00  1.83736e+00 -1.29862e-01             
       H  1.41916e+00 -1.23926e+00  1.00965e+00             
       H -1.75293e-01 -2.00807e+00  3.60341e-01             
       H  1.23817e+00 -1.63598e+00 -7.06505e-01             
       H -2.46279e+00  1.73018e+00 -5.45624e-01             
       H -1.52857e+00  2.31892e+00  8.08436e-01             
       H -8.16389e-01  2.37440e+00 -7.58078e-01             
       H -1.64496e+00 -2.92136e-01  2.49915e-01             
12                                                          
# CELL(abcABC):  100.00000   100.00000   100.00000    90.00000    90.00000    90.00000  Step:      250000  Bead:       0 x_centroid{angstrom}  cell{angstrom}   
       C -3.01367e+01 -1.83862e+01 -1.33540e+01             
       C -2.95169e+01 -1.70283e+01 -1.38313e+01             
       O -2.84204e+01 -1.68519e+01 -1.43169e+01             
       N -3.03785e+01 -1.60253e+01 -1.35053e+01             
       C -3.00687e+01 -1.45922e+01 -1.36797e+01             
       H -3.06943e+01 -1.82164e+01 -1.24269e+01             
       H -3.08702e+01 -1.87069e+01 -1.41325e+01             
       H -2.93133e+01 -1.91557e+01 -1.33125e+01             
       H -2.93976e+01 -1.43172e+01 -1.45379e+01             
       H -3.10354e+01 -1.40127e+01 -1.37038e+01             
       H -2.95761e+01 -1.43204e+01 -1.27538e+01             
       H -3.13321e+01 -1.62287e+01 -1.33934e+01             
