12                                                          
# CELL(abcABC):  100.00000   100.00000   100.00000    90.00000    90.00000    90.00000  Step:           0  Bead:       0 x_centroid{angstrom}  cell{angstrom}   
       C -1.48894e+00  1.75812e+00 -5.57160e-01             
       C -8.51461e-01  4.15547e-01 -3.35626e-01             
       O  3.18223e-01  2.36398e-01 -1.46937e-02             
       N -1.72950e+00 -6.24283e-01 -5.52783e-01             
       C -1.14056e+00 -1.97437e+00 -5.05971e-01             
       H -2.22433e+00  1.76245e+00 -1.35047e+00             
       H -1.93145e+00  2.11433e+00  4.02970e-01             
       H -6.28073e-01  2.42971e+00 -8.67896e-01             
       H -1.34786e+00 -2.44193e+00  5.16604e-01             
       H -1.54832e+00 -2.53001e+00 -1.39983e+00             
       H -3.08906e-02 -1.70881e+00 -5.56589e-01             
       H -2.68078e+00 -4.73262e-01 -8.91107e-01             
12                                                          
# CELL(abcABC):  100.00000   100.00000   100.00000    90.00000    90.00000    90.00000  Step:      250000  Bead:       0 x_centroid{angstrom}  cell{angstrom}   
       C -4.79526e+01 -2.48161e+01 -2.16159e+01             
       C -4.67410e+01 -2.58143e+01 -2.14424e+01             
       O -4.56222e+01 -2.55547e+01 -2.10040e+01             
       N -4.70315e+01 -2.70939e+01 -2.19748e+01             
       C -4.59559e+01 -2.81439e+01 -2.19539e+01             
       H -4.88741e+01 -2.53176e+01 -2.11809e+01             
       H -4.77487e+01 -2.38007e+01 -2.11730e+01             
       H -4.81504e+01 -2.46110e+01 -2.26254e+01             
       H -4.64255e+01 -2.91770e+01 -2.20599e+01             
       H -4.51576e+01 -2.79462e+01 -2.26286e+01             
       H -4.54145e+01 -2.82462e+01 -2.10197e+01             
       H -4.78905e+01 -2.73117e+01 -2.24511e+01             
