12                                                          
# CELL(abcABC):  100.00000   100.00000   100.00000    90.00000    90.00000    90.00000  Step:           0  Bead:       0 x_centroid{angstrom}  cell{angstrom}   
       C  8.98883e-01 -1.63730e-01  1.55655e+00             
       C  3.57878e-01  3.97777e-01  2.00243e-01             
       O  1.10733e+00  8.52928e-01 -6.71003e-01             
       N -9.99623e-01  3.19610e-01  6.21450e-02             
       C -1.78003e+00  8.79211e-01 -1.04278e+00             
       H  5.99361e-01 -1.25951e+00  1.45134e+00             
       H  1.99128e+00 -1.05605e-01  1.51410e+00             
       H  5.35791e-01  4.68293e-01  2.37149e+00             
       H -2.58329e+00  1.99725e-01 -1.28259e+00             
       H -2.17541e+00  1.85046e+00 -7.59332e-01             
       H -1.15297e+00  1.04583e+00 -1.92279e+00             
       H -1.47467e+00 -3.75837e-02  9.11733e-01             
12                                                          
# CELL(abcABC):  100.00000   100.00000   100.00000    90.00000    90.00000    90.00000  Step:      250000  Bead:       0 x_centroid{angstrom}  cell{angstrom}   
       C -1.98596e+01 -9.99728e+00 -8.06641e+00             
       C -2.00191e+01 -1.09401e+01 -9.28400e+00             
       O -1.92831e+01 -1.09981e+01 -1.02585e+01             
       N -2.12481e+01 -1.16235e+01 -9.24939e+00             
       C -2.17444e+01 -1.26047e+01 -1.02912e+01             
       H -1.88263e+01 -9.62611e+00 -7.99885e+00             
       H -2.04686e+01 -9.06193e+00 -8.26689e+00             
       H -2.01963e+01 -1.03973e+01 -7.12030e+00             
       H -2.19634e+01 -1.22288e+01 -1.12615e+01             
       H -2.09659e+01 -1.33653e+01 -1.03931e+01             
       H -2.26321e+01 -1.30707e+01 -9.82071e+00             
       H -2.20187e+01 -1.13209e+01 -8.59473e+00             
