12                                                          
# CELL(abcABC):  100.00000   100.00000   100.00000    90.00000    90.00000    90.00000  Step:           0  Bead:       0 x_centroid{angstrom}  cell{angstrom}   
       C -2.95048e+00 -1.85700e+00 -2.29488e+00             
       C -2.10901e+00 -9.99093e-01 -1.33126e+00             
       O -9.93540e-01 -5.80363e-01 -1.62267e+00             
       N -2.74538e+00 -6.86642e-01 -1.63086e-01             
       C -2.12063e+00  3.62892e-01  5.81489e-01             
       H -2.97552e+00 -2.82224e+00 -1.77993e+00             
       H -3.92981e+00 -1.51350e+00 -2.32379e+00             
       H -2.52641e+00 -1.94456e+00 -3.27575e+00             
       H -2.71419e+00  1.30263e+00  5.86151e-01             
       H -2.01517e+00  1.71939e-01  1.65815e+00             
       H -1.14273e+00  4.73157e-01  7.77225e-02             
       H -3.71127e+00 -9.70672e-01 -5.61362e-02             
12                                                          
# CELL(abcABC):  100.00000   100.00000   100.00000    90.00000    90.00000    90.00000  Step:      250000  Bead:       0 x_centroid{angstrom}  cell{angstrom}   
       C -3.18972e+01 -1.67179e+01 -1.58581e+01             
       C -3.09041e+01 -1.70673e+01 -1.47735e+01             
       O -2.96559e+01 -1.70564e+01 -1.48907e+01             
       N -3.15651e+01 -1.75711e+01 -1.36923e+01             
       C -3.08955e+01 -1.80413e+01 -1.24797e+01             
       H -3.21913e+01 -1.75334e+01 -1.66215e+01             
       H -3.28364e+01 -1.62887e+01 -1.55378e+01             
       H -3.15219e+01 -1.59662e+01 -1.64928e+01             
       H -3.07181e+01 -1.72145e+01 -1.17764e+01             
       H -3.15382e+01 -1.88135e+01 -1.20114e+01             
       H -2.99723e+01 -1.84988e+01 -1.27608e+01             
       H -3.25688e+01 -1.74366e+01 -1.35686e+01             
