NMA

12 atoms
4 atom types

-10.000000000000000e+01 10.000000000000000e+01 xlo xhi
-10.000000000000000e+01 10.000000000000000e+01 ylo yhi
-10.000000000000000e+01 10.000000000000000e+01 zlo zhi

Atoms

1  1  0.4940858437499999  -1.0100533125  -1.0772521875 
2  1  -0.08698695624999998  -0.0328617846875  -0.044363708125 
3  2  -0.7772341250000001  -0.41195478125000007  0.8918496250000003 
4  3  0.15119446562499994  1.2811396874999998  -0.25045528125000005 
5  1  -0.24276093750000002  2.4198615624999995  0.5460724062500001 
6  4  1.3901368749999998  -1.3967856250000001  -0.647167 
7  4  -0.1816869334375  -1.859194375  -1.3397390624999999 
8  4  0.8707897812500003  -0.6107636874999998  -2.0405418749999997 
9  4  -0.4627626562499999  2.0699790625  1.6123031249999995 
10  4  0.5099646250000001  3.198327812499999  0.4597144062500001 
11  4  -1.298255  2.7975700000000003  0.24577844375000002 
12  4  0.6465534062499999  1.5383893750000002  -1.1156265624999997 

