192                                                         
# CELL(abcABC):   12.41850    12.41850    12.41850    90.00000    90.00000    90.00000  Step:           0  Bead:       0 x_centroid{angstrom}  cell{angstrom}   
       O -8.29639e+01 -1.13319e+01  6.70341e+01             
       H -8.33912e+01 -1.14554e+01  6.61659e+01             
       H -8.21129e+01 -1.17788e+01  6.69465e+01             
       O -7.83658e+01 -1.26668e+01  6.21564e+01             
       H -6.78983e+01 -2.08023e+01  6.12296e+01             
       H -7.77339e+01 -1.21991e+01  6.15428e+01             
       O -7.87276e+01 -2.38919e+01  5.56500e+01             
       H -7.83577e+01 -1.21768e+01  5.50912e+01             
       H -7.80873e+01 -2.37766e+01  5.63685e+01             
       O -6.30449e+01 -2.08220e+01  5.58236e+01             
       H -6.28351e+01 -2.13247e+01  5.66412e+01             
       H -6.40050e+01 -2.09575e+01  5.57116e+01             
       O -6.16579e+01 -2.26040e+01  5.39485e+01             
       H -6.22385e+01 -2.26889e+01  5.31776e+01             
       H -6.20325e+01 -2.19242e+01  5.45485e+01             
       O -6.47275e+01 -1.76898e+01  6.84411e+01             
       H -6.46751e+01 -1.70967e+01  6.76766e+01             
       H -6.39628e+01 -1.83059e+01  6.84956e+01             
       O -7.89014e+01 -2.34515e+01  3.95696e+01             
       H -7.94840e+01 -2.26924e+01  3.96393e+01             
       H -6.91165e+01  3.65803e+00  5.29764e+01             
       O -5.78711e+01 -1.61612e+01  7.32097e+01             
       H -5.76762e+01 -1.71205e+01  7.32904e+01             
       H -5.88523e+01 -2.85254e+01  7.29023e+01             
       O -7.82448e+01 -8.83505e+00  4.28803e+01             
       H -7.87732e+01 -8.30219e+00  4.35387e+01             
       H -7.86737e+01 -9.69703e+00  4.27823e+01             
       O -7.01039e+01 -2.40020e+01  5.82388e+01             
       H -7.08935e+01 -2.38183e+01  5.88204e+01             
       H -6.97966e+01 -2.48763e+01  5.86271e+01             
       O -7.20672e+01 -8.23745e+00  6.09779e+01             
       H -7.20772e+01 -7.87238e+00  6.18763e+01             
       H -7.29011e+01 -8.16845e+00  6.04871e+01             
       O -6.94440e+01 -1.08595e+01  5.00116e+01             
       H -6.98048e+01 -1.03940e+01  5.07986e+01             
       H -6.28678e+01 -1.51339e+01  4.98841e+01             
       O -6.43298e+01 -3.37395e+01  4.91584e+01             
       H -6.38120e+01 -3.29547e+01  4.87949e+01             
       H -6.49424e+01 -2.65320e+01  6.26923e+01             
       O -7.46451e+01 -2.02116e+01  4.75794e+01             
       H -7.49464e+01 -1.93513e+01  4.72719e+01             
       H -7.48258e+01 -2.08113e+01  4.68386e+01             
       O -5.66117e+01 -2.74598e+01  6.42765e+01             
       H -5.62003e+01 -2.69979e+01  6.35445e+01             
       H -5.60669e+01 -2.82444e+01  6.44996e+01             
       O -7.32985e+01 -1.40777e+01  6.47802e+01             
       H -7.40665e+01 -1.41498e+01  6.41570e+01             
       H -7.26238e+01 -1.45831e+01  6.42454e+01             
       O -7.56416e+01 -1.77813e+01  4.69928e+01             
       H -7.63019e+01 -3.01658e+01  4.63417e+01             
       H -7.61160e+01 -1.77700e+01  4.79009e+01             
       O -7.43986e+01 -2.54796e+01  4.63413e+01             
       H -7.43125e+01 -2.62909e+01  4.68805e+01             
       H -7.35391e+01 -2.54641e+01  4.58871e+01             
       O -7.68481e+01 -1.28325e+01  5.37795e+01             
       H -7.69947e+01 -1.19937e+01  5.32251e+01             
       H -7.61293e+01 -1.26271e+01  5.43966e+01             
       O -6.73737e+01  9.81273e+00  5.51213e+01             
       H -5.64692e+01 -2.50782e+01  4.94624e+01             
       H -6.74853e+01  9.06265e+00  5.45699e+01             
       O -7.20733e+01 -2.15242e+01  6.40808e+01             
       H -6.83493e+01 -2.82927e+01  6.14178e+01             
       H -8.46502e+01 -2.18266e+01  6.49835e+01             
       O -6.84940e+01 -3.03270e+01  5.81976e+01             
       H -6.75683e+01 -3.01856e+01  5.80740e+01             
       H -6.89912e+01 -3.00703e+01  5.73946e+01             
       O -7.05713e+01 -1.62587e+01  5.75206e+01             
       H -7.09440e+01 -1.68909e+01  5.81694e+01             
       H -7.11908e+01 -1.60748e+01  5.68589e+01             
       O -6.14966e+01 -4.38090e+01  5.23909e+01             
       H -6.07549e+01 -4.44005e+01  5.24713e+01             
       H -6.23051e+01 -4.42921e+01  6.45025e+01             
       O -7.42800e+01 -9.71894e+00  5.78706e+01             
       H -7.33953e+01 -9.43404e+00  5.76162e+01             
       H -7.42126e+01 -1.06077e+01  5.81925e+01             
       O -6.79372e+01 -2.04886e+01  5.70439e+01             
       H -6.80387e+01 -1.97532e+01  5.76775e+01             
       H -6.78244e+01 -2.12205e+01  5.77208e+01             
       O -7.00824e+01 -1.92697e+01  7.56710e+01             
       H -6.95561e+01 -1.89704e+01  7.48594e+01             
       H -7.00128e+01 -1.86894e+01  7.64316e+01             
       O -8.51138e+01 -1.55923e+01  4.71938e+01             
       H -8.57900e+01 -1.62616e+01  4.73288e+01             
       H -8.51425e+01 -1.55094e+01  4.61563e+01             
       O -6.37766e+01 -7.35060e+00  6.38723e+01             
       H -6.46438e+01 -7.46702e+00  6.43392e+01             
       H -6.37056e+01 -8.11263e+00  6.31962e+01             
       O -6.81635e+01 -1.28011e+01  5.34905e+01             
       H -6.87068e+01 -1.34314e+01  5.29657e+01             
       H -6.78319e+01 -1.32470e+01  4.18379e+01             
       O -6.32698e+01 -1.41167e+01  3.14727e+01             
       H -6.25550e+01 -1.38291e+01  3.09094e+01             
       H -7.56955e+01 -1.36212e+01  3.23116e+01             
       O -5.69251e+01 -1.93545e+01  3.58017e+01             
       H -5.78568e+01 -1.95302e+01  3.57764e+01             
       H -5.66965e+01 -1.88597e+01  3.49524e+01             
       O -7.36796e+01 -2.51535e+01  4.23796e+01             
       H -7.33002e+01 -2.54428e+01  4.15700e+01             
       H -7.35863e+01 -2.41906e+01  5.48220e+01             
       O -5.90205e+01 -1.54016e+01  3.86696e+01             
       H -6.84800e+01 -1.07649e+01  4.61168e+01             
       H -5.89009e+01 -1.54541e+01  3.77116e+01             
       O -6.89779e+01 -2.65453e+01  5.87154e+01             
       H -6.94725e+01 -2.72961e+01  5.83336e+01             
       H -6.89622e+01 -2.67590e+01  5.96813e+01             
       O -5.96043e+01 -2.04583e+01  4.46285e+01             
       H -6.01557e+01 -1.99365e+01  4.40258e+01             
       H -5.87618e+01 -2.06405e+01  4.41898e+01             
       O -6.20163e+01 -2.88911e+01  5.33992e+01             
       H -6.17901e+01 -2.98119e+01  5.30852e+01             
       H -6.13991e+01 -2.82642e+01  5.29991e+01             
       O -6.63083e+01 -7.24049e+00  6.53655e+01             
       H -6.70802e+01 -7.71464e+00  6.50772e+01             
       H -6.61553e+01 -7.78606e+00  6.61421e+01             
       O -5.90533e+01  6.38227e+00  7.13293e+01             
       H -5.91062e+01  5.57832e+00  7.07098e+01             
       H -5.98711e+01  6.24128e+00  7.18591e+01             
       O -6.45484e+01 -2.73085e+01  6.31351e+01             
       H -7.94131e+01 -2.41531e+01  3.99753e+01             
       H -6.47010e+01 -2.71885e+01  6.40878e+01             
       O -6.73061e+01 -2.15194e+01  6.12206e+01             
       H -5.81115e+01 -1.52866e+01  3.90657e+01             
       H -6.75023e+01 -2.20265e+01  6.04196e+01             
       O -6.19205e+01 -1.50060e+01  4.97350e+01             
       H -6.76403e+01 -2.74612e+00  5.59821e+01             
       H -6.16376e+01 -1.59113e+01  4.94404e+01             
       O -6.61970e+01 -2.69104e+01  5.89851e+01             
       H -7.95410e+01 -2.67422e+01  7.13143e+01             
       H -6.61453e+01 -1.19931e+01  6.28059e+01             
       O -9.21022e+01 -1.67066e+01  6.54578e+01             
       H -9.19220e+01 -1.76566e+01  6.55719e+01             
       H -9.12259e+01 -1.63072e+01  6.53328e+01             
       O -6.85735e+01 -3.83533e+01  4.92486e+01             
       H -6.76288e+01 -3.83784e+01  4.92416e+01             
       H -7.12200e+01 -2.11260e+01  6.41311e+01             
       O -6.75765e+01 -1.03553e+01  4.62408e+01             
       H -6.68454e+01 -1.09906e+01  4.61067e+01             
       H -8.79093e+01 -2.40542e+01  2.34956e+01             
       O -7.77537e+01 -2.44285e+01  4.56955e+01             
       H -7.72069e+01 -2.41399e+01  4.64431e+01             
       H -7.80156e+01 -2.53281e+01  4.58412e+01             
       O -7.21201e+01 -2.56101e+01  4.49666e+01             
       H -7.23663e+01 -2.57040e+01  4.40146e+01             
       H -7.13596e+01 -2.50779e+01  4.48958e+01             
       O -5.21730e+01 -2.81407e+01  5.35086e+01             
       H -5.12453e+01 -1.59857e+01  5.33079e+01             
       H -5.20691e+01 -2.73375e+01  5.39836e+01             
       O -6.13019e+01 -6.34389e+00  5.58341e+01             
       H -4.86951e+01 -6.41601e+00  5.48967e+01             
       H -6.19846e+01 -6.97923e+00  5.59261e+01             
       O -6.86044e+01  3.53636e+00  5.21360e+01             
       H -6.52374e+01 -3.35563e+01  4.90639e+01             
       H -6.85087e+01  1.78691e+00  4.99160e+01             
       O -7.34894e+01 -1.78920e+01  4.91836e+01             
       H -7.31605e+01 -1.81616e+01  5.00543e+01             
       H -7.43747e+01 -1.82033e+01  4.91193e+01             
       O -7.15392e+01 -1.09608e+01  4.82681e+01             
       H -7.16905e+01 -2.24104e+01  4.82913e+01             
       H -7.07132e+01 -1.11583e+01  4.88055e+01             
       O -7.83114e+01 -1.71304e+01  5.82800e+01             
       H -7.84811e+01 -1.61989e+01  5.84208e+01             
       H -7.77997e+01 -1.72649e+01  5.74037e+01             
       O -6.99154e+01 -2.11746e+01  5.46566e+01             
       H -7.02441e+01 -2.21495e+01  5.46961e+01             
       H -6.91064e+01 -2.12234e+01  5.51770e+01             
       O -7.97412e+01 -2.83398e+01  4.91097e+01             
       H -7.95558e+01 -2.91203e+01  6.09958e+01             
       H -7.86219e+01 -3.96439e+01  4.75116e+01             
       O -6.30314e+01 -2.29585e+01  6.38743e+01             
       H -6.38478e+01 -2.30541e+01  6.34756e+01             
       H -6.23976e+01 -2.32984e+01  6.32564e+01             
       O -7.16171e+01 -2.41787e+01  5.21133e+01             
       H -7.20255e+01 -2.38456e+01  5.13279e+01             
       H -7.18844e+01 -2.51038e+01  5.19945e+01             
       O -8.59830e+01 -1.59370e+01  5.67000e+01             
       H -8.68530e+01 -1.55146e+01  5.65537e+01             
       H -8.61190e+01 -1.68811e+01  5.65695e+01             
       O -6.15620e+01 -2.45442e+01  4.92594e+01             
       H -6.07863e+01 -2.43021e+01  4.87096e+01             
       H -6.14570e+01 -2.55089e+01  4.92264e+01             
       O -8.35508e+01 -1.88352e+01  2.88024e+01             
       H -8.34987e+01 -1.79893e+01  2.92743e+01             
       H -8.30709e+01 -1.94453e+01  2.93279e+01             
       O -7.63857e+01 -2.37867e+01  2.31736e+01             
       H -5.65410e+01 -8.23100e+00  3.90358e+01             
       H -7.64860e+01 -2.28655e+01  2.35190e+01             
       O -7.64759e+01 -1.75344e+01  4.95724e+01             
       H -7.65267e+01 -1.82090e+01  5.02915e+01             
       H -7.68390e+01 -1.66980e+01  4.98750e+01             
       O -7.15863e+01 -1.63949e+01  7.93769e+01             
       H -7.16734e+01 -1.58396e+01  7.85841e+01             
       H -7.24880e+01 -1.63262e+01  7.97514e+01             
192                                                         
# CELL(abcABC):   12.41850    12.41850    12.41850    90.00000    90.00000    90.00000  Step:      200000  Bead:       0 x_centroid{angstrom}  cell{angstrom}   
       O -9.84825e+01 -1.41590e+01  7.70121e+01             
       H -9.82275e+01 -1.49541e+01  7.75061e+01             
       H -9.91086e+01 -1.44466e+01  7.63153e+01             
       O -9.31428e+01 -1.13683e+01  6.65522e+01             
       H -8.20492e+01 -2.46752e+01  6.73999e+01             
       H -9.23593e+01 -1.15689e+01  6.60128e+01             
       O -9.01601e+01 -2.68151e+01  6.37671e+01             
       H -9.07259e+01 -1.44658e+01  6.30068e+01             
       H -8.92825e+01 -2.70263e+01  6.33724e+01             
       O -8.01523e+01 -2.47324e+01  5.84773e+01             
       H -8.09006e+01 -2.43314e+01  5.88785e+01             
       H -7.96285e+01 -2.39224e+01  5.81678e+01             
       O -7.24361e+01 -2.49643e+01  6.20173e+01             
       H -7.28097e+01 -2.52696e+01  6.28339e+01             
       H -7.27406e+01 -2.40347e+01  6.17825e+01             
       O -7.98623e+01 -1.92635e+01  7.92819e+01             
       H -7.89203e+01 -1.92142e+01  7.90833e+01             
       H -8.00048e+01 -1.83940e+01  7.96518e+01             
       O -9.42177e+01 -2.71358e+01  4.51348e+01             
       H -9.44575e+01 -2.78124e+01  4.57683e+01             
       H -8.59199e+01 -2.82008e+00  6.04131e+01             
       O -6.78826e+01 -1.86674e+01  8.28742e+01             
       H -6.80078e+01 -1.80477e+01  8.35824e+01             
       H -6.85210e+01 -3.18324e+01  8.30377e+01             
       O -9.19736e+01 -1.60630e+01  4.70805e+01             
       H -9.17966e+01 -1.53576e+01  4.64378e+01             
       H -9.25307e+01 -1.55825e+01  4.76704e+01             
       O -8.23629e+01 -2.26379e+01  6.47560e+01             
       H -8.32303e+01 -2.23919e+01  6.50834e+01             
       H -8.21250e+01 -2.17654e+01  6.44952e+01             
       O -8.53744e+01 -1.02073e+01  7.30740e+01             
       H -8.52637e+01 -1.03314e+01  7.21315e+01             
       H -8.46329e+01 -9.54037e+00  7.32711e+01             
       O -8.19382e+01 -1.25299e+01  6.27924e+01             
       H -8.19999e+01 -1.21836e+01  6.37026e+01             
       H -7.32444e+01 -1.70580e+01  5.19589e+01             
       O -7.89638e+01 -4.00164e+01  5.72223e+01             
       H -7.82008e+01 -3.93638e+01  5.69265e+01             
       H -7.68033e+01 -3.14618e+01  7.09947e+01             
       O -8.56008e+01 -2.42594e+01  5.62603e+01             
       H -8.52519e+01 -2.41526e+01  5.53592e+01             
       H -8.50702e+01 -2.48948e+01  5.67118e+01             
       O -7.00117e+01 -2.84599e+01  7.23213e+01             
       H -7.08083e+01 -2.83556e+01  7.28399e+01             
       H -6.96580e+01 -2.93203e+01  7.25533e+01             
       O -8.68916e+01 -1.94862e+01  6.63430e+01             
       H -8.74217e+01 -1.98448e+01  6.71354e+01             
       H -8.69300e+01 -1.84512e+01  6.64548e+01             
       O -9.10301e+01 -2.93367e+01  5.28038e+01             
       H -9.07142e+01 -4.09454e+01  5.23383e+01             
       H -9.08063e+01 -3.00512e+01  5.20969e+01             
       O -8.86184e+01 -3.33808e+01  5.57360e+01             
       H -8.81091e+01 -3.38604e+01  5.63867e+01             
       H -8.92392e+01 -3.29328e+01  5.63105e+01             
       O -8.97756e+01 -1.72251e+01  6.07963e+01             
       H -8.91001e+01 -1.65930e+01  6.05029e+01             
       H -9.06872e+01 -1.68433e+01  6.05299e+01             
       O -8.33269e+01  6.46233e+00  6.62252e+01             
       H -7.18363e+01 -2.62057e+01  5.89250e+01             
       H -8.25918e+01  6.97625e+00  6.67211e+01             
       O -8.90876e+01 -2.37447e+01  6.68906e+01             
       H -7.76851e+01 -3.06340e+01  7.46951e+01             
       H -1.02137e+02 -2.38154e+01  6.61538e+01             
       O -8.28634e+01 -3.22849e+01  5.85272e+01             
       H -8.32161e+01 -3.14044e+01  5.82941e+01             
       H -8.30078e+01 -3.27654e+01  5.76544e+01             
       O -8.06218e+01 -1.85492e+01  6.15112e+01             
       H -8.12581e+01 -1.89145e+01  6.21545e+01             
       H -8.05091e+01 -1.91818e+01  6.08014e+01             
       O -7.69116e+01 -5.05965e+01  5.64127e+01             
       H -7.68670e+01 -4.99474e+01  5.71584e+01             
       H -7.69426e+01 -5.00458e+01  6.80353e+01             
       O -8.70985e+01 -9.78255e+00  6.40609e+01             
       H -8.62859e+01 -9.44065e+00  6.36245e+01             
       H -8.66678e+01 -1.04009e+01  6.46832e+01             
       O -7.87905e+01 -2.43619e+01  6.45394e+01             
       H -7.85849e+01 -2.38043e+01  6.37739e+01             
       H -7.83622e+01 -2.52726e+01  6.43434e+01             
       O -8.28220e+01 -2.31361e+01  8.33628e+01             
       H -8.28408e+01 -2.23957e+01  8.26981e+01             
       H -8.33532e+01 -2.37736e+01  8.29697e+01             
       O -1.00437e+02 -1.94684e+01  5.14107e+01             
       H -1.00188e+02 -1.95530e+01  5.24104e+01             
       H -1.00227e+02 -2.03334e+01  5.10521e+01             
       O -7.67812e+01 -1.15404e+01  7.08728e+01             
       H -7.67197e+01 -1.17794e+01  7.18200e+01             
       H -7.75693e+01 -1.09949e+01  7.08531e+01             
       O -8.00858e+01 -1.47719e+01  6.22036e+01             
       H -8.06697e+01 -1.40326e+01  6.22834e+01             
       H -8.04361e+01 -1.55177e+01  5.03173e+01             
       O -7.58632e+01 -2.15550e+01  3.57104e+01             
       H -7.62102e+01 -2.07344e+01  3.53251e+01             
       H -8.73146e+01 -2.15144e+01  3.56972e+01             
       O -6.78836e+01 -2.15975e+01  4.35699e+01             
       H -6.79873e+01 -2.24381e+01  4.30885e+01             
       H -6.75702e+01 -2.09128e+01  4.29256e+01             
       O -8.65853e+01 -2.98919e+01  5.04642e+01             
       H -8.59228e+01 -3.01273e+01  4.97719e+01             
       H -8.72672e+01 -3.06336e+01  6.31118e+01             
       O -7.01547e+01 -1.51016e+01  4.11022e+01             
       H -8.14801e+01 -1.61000e+01  5.49165e+01             
       H -6.99843e+01 -1.41233e+01  4.13441e+01             
       O -8.63412e+01 -2.39944e+01  6.61335e+01             
       H -8.62663e+01 -2.48915e+01  6.57189e+01             
       H -8.71419e+01 -2.38786e+01  6.66438e+01             
       O -7.70231e+01 -2.29804e+01  5.02497e+01             
       H -7.62245e+01 -2.29150e+01  5.08274e+01             
       H -7.67429e+01 -2.24712e+01  4.94806e+01             
       O -7.22936e+01 -3.33773e+01  5.10644e+01             
       H -7.17649e+01 -3.28968e+01  5.03826e+01             
       H -7.20320e+01 -3.29572e+01  5.18825e+01             
       O -7.78553e+01 -1.27903e+01  7.32774e+01             
       H -7.88189e+01 -1.28408e+01  7.30160e+01             
       H -7.78018e+01 -1.19191e+01  7.36888e+01             
       O -7.22351e+01  7.24409e+00  8.23642e+01             
       H -7.29441e+01  6.61453e+00  8.27181e+01             
       H -7.21649e+01  7.96439e+00  8.29971e+01             
       O -7.62576e+01 -3.14981e+01  7.17692e+01             
       H -9.32991e+01 -2.69760e+01  4.53173e+01             
       H -7.66746e+01 -3.07776e+01  7.23564e+01             
       O -8.28223e+01 -2.52831e+01  6.75968e+01             
       H -7.10506e+01 -1.51732e+01  4.08464e+01             
       H -8.25847e+01 -2.58190e+01  6.83612e+01             
       O -7.30615e+01 -1.67625e+01  5.28352e+01             
       H -8.35991e+01 -6.70850e+00  6.67541e+01             
       H -7.23581e+01 -1.72994e+01  5.33622e+01             
       O -7.88764e+01 -3.45168e+01  7.08635e+01             
       H -9.18142e+01 -3.41333e+01  8.24899e+01             
       H -8.13275e+01 -1.10525e+01  6.58150e+01             
       O -1.04717e+02 -2.09987e+01  7.30624e+01             
       H -1.05356e+02 -2.17100e+01  7.31109e+01             
       H -1.04330e+02 -2.08160e+01  7.40173e+01             
       O -8.39082e+01 -3.82612e+01  5.81266e+01             
       H -8.30053e+01 -3.86216e+01  5.80309e+01             
       H -8.92105e+01 -2.28306e+01  6.72771e+01             
       O -8.12631e+01 -1.70025e+01  5.51882e+01             
       H -8.10069e+01 -1.68225e+01  5.61556e+01             
       H -9.82858e+01 -2.67061e+01  3.27446e+01             
       O -9.12724e+01 -3.33457e+01  5.06782e+01             
       H -9.05466e+01 -3.40268e+01  5.05578e+01             
       H -9.08167e+01 -3.23900e+01  5.08076e+01             
       O -8.69750e+01 -2.90619e+01  5.50964e+01             
       H -8.65135e+01 -2.87282e+01  5.43263e+01             
       H -8.66560e+01 -2.86014e+01  5.59432e+01             
       O -6.49630e+01 -2.94521e+01  5.52467e+01             
       H -6.40209e+01 -1.69164e+01  5.51693e+01             
       H -6.54131e+01 -2.92353e+01  5.44139e+01             
       O -7.52229e+01 -1.48431e+01  6.25641e+01             
       H -6.27887e+01 -1.48248e+01  6.15794e+01             
       H -7.48480e+01 -1.57692e+01  6.27018e+01             
       O -8.50972e+01 -2.30591e+00  6.04499e+01             
       H -7.88315e+01 -4.09014e+01  5.68326e+01             
       H -8.28462e+01 -8.64316e-02  6.24135e+01             
       O -8.16817e+01 -2.29546e+01  6.10349e+01             
       H -8.20435e+01 -2.31284e+01  6.01604e+01             
       H -8.16653e+01 -2.37439e+01  6.15662e+01             
       O -8.82972e+01 -1.49796e+01  5.98182e+01             
       H -8.78124e+01 -2.73928e+01  5.88880e+01             
       H -8.89386e+01 -1.42670e+01  5.96733e+01             
       O -9.36275e+01 -2.01921e+01  6.40571e+01             
       H -9.26954e+01 -2.05359e+01  6.38285e+01             
       H -9.35566e+01 -1.96598e+01  6.48350e+01             
       O -8.47261e+01 -2.15304e+01  6.64395e+01             
       H -8.52592e+01 -2.07755e+01  6.62897e+01             
       H -8.53743e+01 -2.22128e+01  6.63177e+01             
       O -9.08583e+01 -3.08484e+01  6.28844e+01             
       H -9.17363e+01 -3.05766e+01  7.49218e+01             
       H -9.16704e+01 -4.64566e+01  5.92207e+01             
       O -8.12583e+01 -2.90926e+01  6.39443e+01             
       H -8.05863e+01 -2.92933e+01  6.46296e+01             
       H -8.17286e+01 -2.83330e+01  6.43869e+01             
       O -8.60964e+01 -3.19992e+01  5.90737e+01             
       H -8.70176e+01 -3.17694e+01  5.91005e+01             
       H -8.60004e+01 -3.29146e+01  5.87709e+01             
       O -9.58543e+01 -2.06933e+01  6.08708e+01             
       H -9.55764e+01 -2.03542e+01  5.99820e+01             
       H -9.52776e+01 -2.14566e+01  6.11667e+01             
       O -7.44250e+01 -3.46140e+01  5.77685e+01             
       H -7.52077e+01 -3.49470e+01  5.82361e+01             
       H -7.40534e+01 -3.53795e+01  5.73147e+01             
       O -9.54636e+01 -2.13200e+01  3.14190e+01             
       H -9.45971e+01 -2.13475e+01  3.09812e+01             
       H -9.60993e+01 -2.14859e+01  3.07345e+01             
       O -8.67130e+01 -2.71725e+01  3.26235e+01             
       H -7.27619e+01 -1.39188e+01  4.86225e+01             
       H -8.73852e+01 -2.65973e+01  3.22112e+01             
       O -9.01254e+01 -1.90654e+01  5.69947e+01             
       H -9.10677e+01 -1.90396e+01  5.71501e+01             
       H -8.99254e+01 -1.84967e+01  5.62556e+01             
       O -8.48426e+01 -1.79250e+01  8.56693e+01             
       H -8.42021e+01 -1.85216e+01  8.60641e+01             
       H -8.52781e+01 -1.85465e+01  8.50333e+01             
