192                                                         
# CELL(abcABC):   12.41850    12.41850    12.41850    90.00000    90.00000    90.00000  Step:           0  Bead:       0 x_centroid{angstrom}  cell{angstrom}   
       O -7.90308e+01 -1.15283e+01  6.67663e+01             
       H -7.88037e+01 -1.24406e+01  6.66344e+01             
       H -7.83488e+01 -1.10937e+01  6.73340e+01             
       O -7.52631e+01 -1.30025e+01  6.18774e+01             
       H -6.60747e+01 -1.89491e+01  5.88633e+01             
       H -7.47517e+01 -1.26800e+01  6.11181e+01             
       O -7.66682e+01 -2.29571e+01  5.52312e+01             
       H -7.62062e+01 -1.11881e+01  5.46915e+01             
       H -7.62225e+01 -2.30242e+01  5.61309e+01             
       O -6.25293e+01 -2.10857e+01  5.40349e+01             
       H -6.19973e+01 -2.13418e+01  5.47915e+01             
       H -6.32864e+01 -2.16008e+01  5.41699e+01             
       O -6.05493e+01 -2.21273e+01  5.22035e+01             
       H -6.09308e+01 -2.21023e+01  5.12799e+01             
       H -6.12985e+01 -2.17201e+01  5.27238e+01             
       O -6.24810e+01 -1.86515e+01  6.84591e+01             
       H -6.27644e+01 -1.94492e+01  6.79985e+01             
       H -6.31815e+01 -1.80127e+01  6.86832e+01             
       O -7.63998e+01 -2.34621e+01  3.86134e+01             
       H -7.73386e+01 -2.34089e+01  3.88243e+01             
       H -6.66748e+01  1.35427e+00  5.26100e+01             
       O -5.55071e+01 -1.37140e+01  7.25256e+01             
       H -5.55454e+01 -1.33639e+01  7.17014e+01             
       H -5.48135e+01 -2.55925e+01  7.29040e+01             
       O -7.83732e+01 -8.25546e+00  4.06853e+01             
       H -7.83264e+01 -8.33221e+00  4.16603e+01             
       H -7.85298e+01 -9.08290e+00  4.02376e+01             
       O -6.78332e+01 -2.43586e+01  5.78960e+01             
       H -6.86727e+01 -2.39004e+01  5.77484e+01             
       H -6.74801e+01 -2.47053e+01  5.70651e+01             
       O -7.18331e+01 -7.76256e+00  6.02864e+01             
       H -7.15505e+01 -7.39819e+00  6.11290e+01             
       H -7.27398e+01 -7.42642e+00  6.01129e+01             
       O -6.73003e+01 -9.56363e+00  4.82673e+01             
       H -6.80492e+01 -9.75707e+00  4.88840e+01             
       H -5.95672e+01 -1.38405e+01  4.72833e+01             
       O -6.34201e+01 -3.07561e+01  4.77231e+01             
       H -6.28326e+01 -3.11462e+01  4.70384e+01             
       H -6.18528e+01 -2.66078e+01  6.28198e+01             
       O -7.40897e+01 -1.97118e+01  4.60425e+01             
       H -7.41817e+01 -1.90973e+01  4.52562e+01             
       H -7.42145e+01 -2.05622e+01  4.57092e+01             
       O -5.38289e+01 -2.68301e+01  6.32021e+01             
       H -5.38363e+01 -2.61648e+01  6.25665e+01             
       H -5.31271e+01 -2.74979e+01  6.30217e+01             
       O -7.02776e+01 -1.28601e+01  6.26910e+01             
       H -7.07336e+01 -1.31059e+01  6.18638e+01             
       H -6.97827e+01 -1.36248e+01  6.30400e+01             
       O -7.33884e+01 -1.40495e+01  4.61627e+01             
       H -7.32123e+01 -2.64933e+01  4.52115e+01             
       H -7.41968e+01 -1.45878e+01  4.63961e+01             
       O -7.15100e+01 -2.48133e+01  4.37443e+01             
       H -7.16166e+01 -2.44253e+01  4.45913e+01             
       H -7.08875e+01 -2.43077e+01  4.31927e+01             
       O -7.59755e+01 -1.23603e+01  5.33702e+01             
       H -7.51627e+01 -1.28092e+01  5.37293e+01             
       H -7.66968e+01 -1.30339e+01  5.33953e+01             
       O -6.57501e+01  8.21698e+00  5.39853e+01             
       H -5.24011e+01 -2.54506e+01  4.87795e+01             
       H -6.57960e+01  7.74733e+00  5.30962e+01             
       O -7.20122e+01 -1.88505e+01  6.50480e+01             
       H -6.29239e+01 -2.74156e+01  6.05467e+01             
       H -8.40546e+01 -1.94886e+01  6.56889e+01             
       O -6.64276e+01 -3.05055e+01  5.73514e+01             
       H -6.55605e+01 -3.00570e+01  5.71180e+01             
       H -6.70295e+01 -2.97445e+01  5.74498e+01             
       O -6.82716e+01 -1.60930e+01  5.79587e+01             
       H -6.82470e+01 -1.61745e+01  5.88981e+01             
       H -6.92335e+01 -1.60940e+01  5.77454e+01             
       O -6.23540e+01 -4.33346e+01  5.26472e+01             
       H -6.23711e+01 -4.24121e+01  5.29480e+01             
       H -6.28192e+01 -4.38640e+01  6.57283e+01             
       O -7.35089e+01 -9.90398e+00  5.60977e+01             
       H -7.27018e+01 -9.31064e+00  5.60419e+01             
       H -7.31611e+01 -1.08094e+01  5.59703e+01             
       O -6.62418e+01 -2.07521e+01  5.57166e+01             
       H -6.62667e+01 -1.98501e+01  5.60988e+01             
       H -6.58510e+01 -2.12477e+01  5.65119e+01             
       O -6.73907e+01 -1.93228e+01  7.44752e+01             
       H -6.68369e+01 -1.90545e+01  7.36943e+01             
       H -6.81516e+01 -1.87355e+01  7.44538e+01             
       O -8.33986e+01 -1.67865e+01  4.67524e+01             
       H -8.40007e+01 -1.62936e+01  4.61445e+01             
       H -8.38957e+01 -1.69298e+01  4.75777e+01             
       O -6.20621e+01 -6.36697e+00  6.23651e+01             
       H -6.25169e+01 -6.42654e+00  6.32515e+01             
       H -6.26071e+01 -6.17688e+00  6.15964e+01             
       O -6.58076e+01 -1.39420e+01  5.33728e+01             
       H -6.59723e+01 -1.39101e+01  5.24069e+01             
       H -6.56354e+01 -1.48575e+01  4.11549e+01             
       O -6.11943e+01 -1.36138e+01  2.91614e+01             
       H -6.05094e+01 -1.32838e+01  2.85014e+01             
       H -7.31650e+01 -1.34175e+01  3.00026e+01             
       O -5.41468e+01 -1.63791e+01  3.53378e+01             
       H -5.45723e+01 -1.55415e+01  3.55133e+01             
       H -5.35166e+01 -1.65110e+01  3.60852e+01             
       O -7.16699e+01 -2.46160e+01  4.01689e+01             
       H -7.14036e+01 -2.49774e+01  3.93666e+01             
       H -7.23245e+01 -2.39282e+01  5.25007e+01             
       O -5.65507e+01 -1.49439e+01  3.92494e+01             
       H -6.64245e+01 -1.02874e+01  4.60001e+01             
       H -5.68649e+01 -1.58970e+01  3.91881e+01             
       O -6.68834e+01 -2.65773e+01  5.63758e+01             
       H -6.71976e+01 -2.69711e+01  5.55797e+01             
       H -6.72832e+01 -2.71880e+01  5.70245e+01             
       O -5.92347e+01 -2.02416e+01  4.32282e+01             
       H -5.87412e+01 -1.99653e+01  4.40505e+01             
       H -5.85270e+01 -2.06767e+01  4.27767e+01             
       O -6.00294e+01 -2.83010e+01  5.24277e+01             
       H -6.01970e+01 -2.82952e+01  5.33482e+01             
       H -5.96544e+01 -2.91507e+01  5.22465e+01             
       O -6.57752e+01 -5.77638e+00  6.42712e+01             
       H -6.63523e+01 -5.99310e+00  6.35392e+01             
       H -6.55036e+01 -6.67246e+00  6.45163e+01             
       O -5.80795e+01  5.48151e+00  7.03594e+01             
       H -5.85893e+01  5.11404e+00  7.10821e+01             
       H -5.79178e+01  6.35795e+00  7.06745e+01             
       O -6.16064e+01 -2.75465e+01  6.28538e+01             
       H -7.60706e+01 -2.38191e+01  3.94603e+01             
       H -6.12271e+01 -2.77687e+01  6.37122e+01             
       O -6.59960e+01 -1.95592e+01  5.96485e+01             
       H -5.56123e+01 -1.49013e+01  3.89365e+01             
       H -6.58839e+01 -2.04457e+01  5.92552e+01             
       O -5.87660e+01 -1.37523e+01  4.78445e+01             
       H -6.67160e+01 -4.11346e+00  5.41472e+01             
       H -5.80201e+01 -1.42382e+01  4.75580e+01             
       O -6.43882e+01 -2.66210e+01  5.70542e+01             
       H -7.77815e+01 -2.64229e+01  6.91128e+01             
       H -6.30777e+01 -1.22052e+01  6.24141e+01             
       O -8.91910e+01 -1.63239e+01  6.25609e+01             
       H -8.93327e+01 -1.69290e+01  6.32776e+01             
       H -8.82672e+01 -1.60959e+01  6.26484e+01             
       O -6.57368e+01 -3.76076e+01  4.87243e+01             
       H -6.57662e+01 -3.66820e+01  4.89227e+01             
       H -7.30027e+01 -1.89404e+01  6.50431e+01             
       O -6.56239e+01 -9.79338e+00  4.57156e+01             
       H -6.49020e+01 -1.04253e+01  4.58411e+01             
       H -8.58261e+01 -2.34770e+01  2.24300e+01             
       O -7.58157e+01 -2.38890e+01  4.54860e+01             
       H -7.51584e+01 -2.37400e+01  4.62126e+01             
       H -7.58692e+01 -2.48571e+01  4.53216e+01             
       O -6.94353e+01 -2.39673e+01  4.20519e+01             
       H -6.99144e+01 -2.41846e+01  4.12151e+01             
       H -6.84699e+01 -2.41345e+01  4.20016e+01             
       O -5.06973e+01 -2.81848e+01  5.32751e+01             
       H -5.15797e+01 -1.60905e+01  5.36589e+01             
       H -5.02821e+01 -2.75015e+01  5.37694e+01             
       O -5.99209e+01 -4.65752e+00  5.51318e+01             
       H -4.82813e+01 -5.10045e+00  5.54844e+01             
       H -5.94417e+01 -5.34505e+00  5.46214e+01             
       O -6.66138e+01  1.67478e+00  5.17275e+01             
       H -6.43434e+01 -3.11027e+01  4.74913e+01             
       H -6.70492e+01  3.74295e+00  4.84497e+01             
       O -6.99207e+01 -1.73664e+01  5.09174e+01             
       H -7.01798e+01 -1.80734e+01  5.15390e+01             
       H -7.06767e+01 -1.72810e+01  5.02840e+01             
       O -6.90808e+01 -9.40722e+00  4.61757e+01             
       H -6.90893e+01 -2.08883e+01  4.58130e+01             
       H -6.84788e+01 -9.47841e+00  4.69400e+01             
       O -7.66930e+01 -1.68144e+01  5.64703e+01             
       H -7.65250e+01 -1.58692e+01  5.66314e+01             
       H -7.72216e+01 -1.68206e+01  5.56409e+01             
       O -6.90858e+01 -2.10699e+01  5.45701e+01             
       H -6.89907e+01 -2.20456e+01  5.47563e+01             
       H -6.83338e+01 -2.06200e+01  5.50060e+01             
       O -7.55017e+01 -2.77785e+01  4.72968e+01             
       H -7.57125e+01 -2.87044e+01  5.98021e+01             
       H -7.70027e+01 -3.93238e+01  4.55689e+01             
       O -6.22209e+01 -2.19098e+01  6.22029e+01             
       H -6.30510e+01 -2.23140e+01  6.26613e+01             
       H -6.23382e+01 -2.09928e+01  6.19708e+01             
       O -6.91966e+01 -2.27072e+01  5.03518e+01             
       H -6.97723e+01 -2.20408e+01  5.08130e+01             
       H -6.97931e+01 -2.35128e+01  5.04060e+01             
       O -8.30243e+01 -1.51807e+01  5.62995e+01             
       H -8.31897e+01 -1.42462e+01  5.60210e+01             
       H -8.36841e+01 -1.58007e+01  5.59566e+01             
       O -5.91884e+01 -2.36168e+01  4.65863e+01             
       H -5.84858e+01 -2.29023e+01  4.66471e+01             
       H -5.88974e+01 -2.43568e+01  4.71453e+01             
       O -8.15342e+01 -2.01803e+01  2.69580e+01             
       H -8.13463e+01 -2.04658e+01  2.78676e+01             
       H -8.06930e+01 -2.01455e+01  2.64986e+01             
       O -7.42670e+01 -2.36335e+01  2.27896e+01             
       H -5.50401e+01 -1.05982e+01  3.89089e+01             
       H -7.45541e+01 -2.29315e+01  2.34319e+01             
       O -7.22242e+01 -1.69631e+01  4.93552e+01             
       H -7.29858e+01 -1.75454e+01  4.93415e+01             
       H -7.26983e+01 -1.61452e+01  4.96676e+01             
       O -6.83468e+01 -1.54466e+01  7.92334e+01             
       H -6.85881e+01 -1.49106e+01  7.84297e+01             
       H -6.90577e+01 -1.55635e+01  7.99052e+01             
192                                                         
# CELL(abcABC):   12.41850    12.41850    12.41850    90.00000    90.00000    90.00000  Step:      200000  Bead:       0 x_centroid{angstrom}  cell{angstrom}   
       O -9.97554e+01 -2.02436e+01  7.64547e+01             
       H -9.90211e+01 -2.02416e+01  7.58129e+01             
       H -9.99147e+01 -2.11178e+01  7.67942e+01             
       O -9.01774e+01 -1.60504e+01  7.58811e+01             
       H -8.50114e+01 -2.61242e+01  6.40161e+01             
       H -8.95009e+01 -1.62130e+01  7.66480e+01             
       O -9.42106e+01 -3.00978e+01  6.29071e+01             
       H -9.37023e+01 -1.68963e+01  6.30667e+01             
       H -9.43552e+01 -3.01578e+01  6.19714e+01             
       O -8.63098e+01 -2.95736e+01  6.29834e+01             
       H -8.54173e+01 -2.93002e+01  6.27368e+01             
       H -8.65901e+01 -3.01356e+01  6.22373e+01             
       O -7.78818e+01 -2.22436e+01  6.06696e+01             
       H -7.73698e+01 -2.30009e+01  6.04800e+01             
       H -7.86943e+01 -2.26197e+01  6.12341e+01             
       O -8.44115e+01 -2.76717e+01  7.63415e+01             
       H -8.34883e+01 -2.78310e+01  7.61685e+01             
       H -8.45377e+01 -2.82255e+01  7.71704e+01             
       O -9.52766e+01 -2.42484e+01  4.95680e+01             
       H -9.53093e+01 -2.52330e+01  4.96301e+01             
       H -8.37340e+01 -7.63364e+00  6.28962e+01             
       O -6.71252e+01 -1.96587e+01  7.88765e+01             
       H -6.61388e+01 -1.96400e+01  7.89560e+01             
       H -6.72899e+01 -3.21990e+01  7.79341e+01             
       O -1.00133e+02 -1.61958e+01  5.29444e+01             
       H -9.97740e+01 -1.53298e+01  5.33000e+01             
       H -9.96238e+01 -1.64216e+01  5.21663e+01             
       O -8.12456e+01 -2.93373e+01  6.62705e+01             
       H -8.09677e+01 -3.02696e+01  6.63005e+01             
       H -8.07668e+01 -2.89535e+01  6.54847e+01             
       O -8.81004e+01 -1.76668e+01  6.76837e+01             
       H -8.83608e+01 -1.86130e+01  6.76683e+01             
       H -8.76895e+01 -1.74715e+01  6.67952e+01             
       O -8.74217e+01 -9.75078e+00  5.81845e+01             
       H -8.78148e+01 -1.03857e+01  5.88895e+01             
       H -7.72216e+01 -2.09964e+01  6.11472e+01             
       O -8.28698e+01 -3.50151e+01  5.20418e+01             
       H -8.28315e+01 -3.55096e+01  5.11589e+01             
       H -8.15484e+01 -3.30360e+01  7.08085e+01             
       O -9.37273e+01 -2.57576e+01  5.22907e+01             
       H -9.40636e+01 -2.58841e+01  5.33120e+01             
       H -9.41966e+01 -2.50024e+01  5.19918e+01             
       O -7.20919e+01 -2.77411e+01  7.25455e+01             
       H -7.29486e+01 -2.80816e+01  7.23888e+01             
       H -7.16470e+01 -2.78636e+01  7.15565e+01             
       O -8.72336e+01 -1.66184e+01  7.18724e+01             
       H -8.74359e+01 -1.73763e+01  7.24707e+01             
       H -8.70490e+01 -1.70456e+01  7.09906e+01             
       O -8.92517e+01 -2.03126e+01  5.51682e+01             
       H -8.87129e+01 -3.35586e+01  5.50159e+01             
       H -8.97015e+01 -2.04357e+01  5.60581e+01             
       O -8.33425e+01 -3.07021e+01  5.69522e+01             
       H -8.31564e+01 -3.11397e+01  5.61165e+01             
       H -8.27675e+01 -3.11417e+01  5.75383e+01             
       O -9.20475e+01 -1.98803e+01  6.33110e+01             
       H -9.17460e+01 -1.90540e+01  6.28335e+01             
       H -9.30239e+01 -1.99585e+01  6.32240e+01             
       O -8.60626e+01  4.94800e+00  5.84535e+01             
       H -7.07794e+01 -2.27328e+01  5.91710e+01             
       H -8.67408e+01  4.20665e+00  5.84338e+01             
       O -9.00287e+01 -2.60083e+01  7.50392e+01             
       H -8.03262e+01 -2.85609e+01  6.78010e+01             
       H -1.01596e+02 -2.59369e+01  7.46843e+01             
       O -8.68747e+01 -3.86703e+01  6.18152e+01             
       H -8.63608e+01 -3.95252e+01  6.17512e+01             
       H -8.64766e+01 -3.82550e+01  6.26304e+01             
       O -8.33825e+01 -1.99490e+01  6.71288e+01             
       H -8.43274e+01 -1.97188e+01  6.69462e+01             
       H -8.32957e+01 -2.08841e+01  6.73009e+01             
       O -7.81638e+01 -4.70122e+01  6.46092e+01             
       H -7.85718e+01 -4.77824e+01  6.41729e+01             
       H -7.85720e+01 -4.62422e+01  7.67183e+01             
       O -8.94293e+01 -1.53780e+01  6.84090e+01             
       H -8.89879e+01 -1.62554e+01  6.82065e+01             
       H -8.90224e+01 -1.50283e+01  6.92840e+01             
       O -8.67490e+01 -2.64069e+01  6.64496e+01             
       H -8.74476e+01 -2.60978e+01  6.70447e+01             
       H -8.60485e+01 -2.66288e+01  6.70698e+01             
       O -8.22882e+01 -2.58898e+01  7.95510e+01             
       H -8.19502e+01 -2.60306e+01  8.04835e+01             
       H -8.25553e+01 -2.49511e+01  7.95488e+01             
       O -1.00178e+02 -2.26350e+01  5.45169e+01             
       H -1.00110e+02 -2.29449e+01  5.36059e+01             
       H -1.00674e+02 -2.33312e+01  5.50006e+01             
       O -8.05556e+01 -9.45132e+00  6.78772e+01             
       H -8.02103e+01 -8.76874e+00  6.72235e+01             
       H -7.97804e+01 -9.88193e+00  6.82537e+01             
       O -8.12521e+01 -1.39493e+01  5.72090e+01             
       H -8.07919e+01 -1.32500e+01  5.76473e+01             
       H -8.05542e+01 -1.46813e+01  4.45956e+01             
       O -7.36373e+01 -1.76634e+01  4.45051e+01             
       H -7.40903e+01 -1.76866e+01  4.36412e+01             
       H -8.50778e+01 -1.78235e+01  4.44290e+01             
       O -7.00546e+01 -1.45347e+01  4.93198e+01             
       H -7.07638e+01 -1.47920e+01  4.87556e+01             
       H -6.92091e+01 -1.43728e+01  4.88982e+01             
       O -9.08037e+01 -3.03353e+01  4.90710e+01             
       H -9.01162e+01 -3.10108e+01  4.89229e+01             
       H -9.09852e+01 -2.99330e+01  6.05475e+01             
       O -7.08816e+01 -1.55387e+01  4.55154e+01             
       H -8.38194e+01 -1.42604e+01  5.50311e+01             
       H -7.06652e+01 -1.64454e+01  4.51333e+01             
       O -8.40987e+01 -2.93160e+01  6.61392e+01             
       H -8.43546e+01 -2.87554e+01  6.69249e+01             
       H -8.31650e+01 -2.90944e+01  6.59961e+01             
       O -7.86707e+01 -2.49802e+01  5.26620e+01             
       H -7.82426e+01 -2.53759e+01  5.18547e+01             
       H -7.96297e+01 -2.52567e+01  5.26307e+01             
       O -7.82733e+01 -3.32224e+01  5.77235e+01             
       H -7.91791e+01 -3.29814e+01  5.79166e+01             
       H -7.78411e+01 -3.34479e+01  5.85314e+01             
       O -8.33021e+01 -8.61689e+00  7.18015e+01             
       H -8.42254e+01 -8.40970e+00  7.15626e+01             
       H -8.32448e+01 -8.16623e+00  7.26384e+01             
       O -7.32085e+01  1.54541e+00  8.11094e+01             
       H -7.23002e+01  1.77906e+00  8.07620e+01             
       H -7.38685e+01  1.90496e+00  8.05266e+01             
       O -8.09246e+01 -3.26871e+01  7.02269e+01             
       H -9.58938e+01 -2.40676e+01  4.88718e+01             
       H -8.10062e+01 -3.32108e+01  6.93705e+01             
       O -8.55642e+01 -2.53072e+01  6.39929e+01             
       H -7.01196e+01 -1.48810e+01  4.53572e+01             
       H -8.60857e+01 -2.52817e+01  6.48371e+01             
       O -7.66937e+01 -2.01132e+01  6.13956e+01             
       H -8.61939e+01 -6.75256e+00  5.77947e+01             
       H -7.65654e+01 -2.03565e+01  6.23599e+01             
       O -8.03711e+01 -2.82674e+01  6.41715e+01             
       H -9.30622e+01 -2.73227e+01  7.66162e+01             
       H -7.78244e+01 -1.67916e+01  7.52719e+01             
       O -1.07844e+02 -2.30596e+01  6.69703e+01             
       H -1.07923e+02 -2.29614e+01  6.59933e+01             
       H -1.06936e+02 -2.28605e+01  6.71848e+01             
       O -8.29697e+01 -3.60614e+01  5.88826e+01             
       H -8.37844e+01 -3.65770e+01  5.90021e+01             
       H -9.00306e+01 -2.69186e+01  7.53684e+01             
       O -8.45948e+01 -1.47743e+01  5.54134e+01             
       H -8.46635e+01 -1.44173e+01  5.63046e+01             
       H -1.04268e+02 -2.89773e+01  3.37073e+01             
       O -9.27809e+01 -2.45276e+01  5.87272e+01             
       H -9.35844e+01 -2.40445e+01  5.87927e+01             
       H -9.24292e+01 -2.40884e+01  5.79382e+01             
       O -8.56594e+01 -3.15315e+01  5.39269e+01             
       H -8.53706e+01 -3.07269e+01  5.35353e+01             
       H -8.61695e+01 -3.21006e+01  5.32979e+01             
       O -6.95931e+01 -3.00843e+01  6.01710e+01             
       H -7.02079e+01 -1.70577e+01  5.97805e+01             
       H -6.87148e+01 -2.97364e+01  6.00154e+01             
       O -7.56473e+01 -1.07932e+01  6.44780e+01             
       H -6.41842e+01 -1.04554e+01  6.43063e+01             
       H -7.51111e+01 -1.07633e+01  6.36694e+01             
       O -8.42462e+01 -7.87077e+00  6.21068e+01             
       H -8.24902e+01 -3.40753e+01  5.19253e+01             
       H -8.67296e+01  2.10332e+00  5.77919e+01             
       O -9.11302e+01 -2.33326e+01  5.68378e+01             
       H -9.05720e+01 -2.40939e+01  5.65414e+01             
       H -9.06411e+01 -2.24675e+01  5.71367e+01             
       O -8.58265e+01 -1.33214e+01  5.73386e+01             
       H -8.57829e+01 -2.48591e+01  5.68837e+01             
       H -8.56346e+01 -1.32355e+01  5.82875e+01             
       O -9.24426e+01 -2.31600e+01  6.24030e+01             
       H -9.31882e+01 -2.38086e+01  6.22601e+01             
       H -9.29203e+01 -2.24173e+01  6.26885e+01             
       O -8.94407e+01 -2.50990e+01  6.75115e+01             
       H -8.98818e+01 -2.50556e+01  6.66688e+01             
       H -8.93543e+01 -2.60186e+01  6.77921e+01             
       O -9.22644e+01 -2.83788e+01  5.62591e+01             
       H -9.12961e+01 -2.82507e+01  6.86308e+01             
       H -9.18907e+01 -4.06836e+01  5.14102e+01             
       O -7.98250e+01 -2.64236e+01  7.31077e+01             
       H -7.97322e+01 -2.55961e+01  7.26858e+01             
       H -7.90302e+01 -2.64457e+01  7.37797e+01             
       O -8.64649e+01 -3.15720e+01  6.10514e+01             
       H -8.62654e+01 -3.16038e+01  6.01063e+01             
       H -8.73325e+01 -3.19839e+01  6.12085e+01             
       O -9.46416e+01 -1.97687e+01  6.44623e+01             
       H -9.45157e+01 -1.88884e+01  6.40439e+01             
       H -9.50615e+01 -1.96863e+01  6.53265e+01             
       O -7.57577e+01 -2.67903e+01  5.82329e+01             
       H -7.49564e+01 -2.65144e+01  5.77414e+01             
       H -7.54751e+01 -2.74001e+01  5.90225e+01             
       O -9.75330e+01 -2.50997e+01  3.50154e+01             
       H -9.72399e+01 -2.60231e+01  3.53072e+01             
       H -9.81929e+01 -2.49027e+01  3.56710e+01             
       O -9.18873e+01 -2.89065e+01  3.46694e+01             
       H -7.25700e+01 -1.96932e+01  4.94996e+01             
       H -9.21087e+01 -2.79517e+01  3.48726e+01             
       O -8.88079e+01 -2.43322e+01  5.98457e+01             
       H -8.82727e+01 -2.44021e+01  6.06236e+01             
       H -8.86275e+01 -2.50450e+01  5.92361e+01             
       O -8.58005e+01 -2.29297e+01  8.72413e+01             
       H -8.52990e+01 -2.21015e+01  8.71563e+01             
       H -8.52568e+01 -2.33864e+01  8.79610e+01             
