192                                                         
# CELL(abcABC):   12.41850    12.41850    12.41850    90.00000    90.00000    90.00000  Step:           0  Bead:       0 x_centroid{angstrom}  cell{angstrom}   
       O -7.70910e+01 -1.22171e+01  6.38422e+01             
       H -7.80487e+01 -1.21568e+01  6.34177e+01             
       H -7.65988e+01 -1.17366e+01  6.31459e+01             
       O -6.90728e+01 -9.40967e+00  6.09466e+01             
       H -6.37275e+01 -1.88322e+01  5.39644e+01             
       H -6.91773e+01 -9.26260e+00  6.19082e+01             
       O -6.90567e+01 -2.32571e+01  5.22378e+01             
       H -6.85505e+01 -1.01221e+01  5.26175e+01             
       H -6.94794e+01 -2.35616e+01  5.30109e+01             
       O -5.57863e+01 -2.28012e+01  5.50556e+01             
       H -5.59544e+01 -2.25099e+01  5.59420e+01             
       H -5.49658e+01 -2.33813e+01  5.50981e+01             
       O -5.59396e+01 -2.01570e+01  5.14586e+01             
       H -5.62810e+01 -1.93610e+01  5.11588e+01             
       H -5.58488e+01 -2.00446e+01  5.24295e+01             
       O -5.93096e+01 -1.84313e+01  6.41356e+01             
       H -5.99311e+01 -1.76974e+01  6.43301e+01             
       H -5.96365e+01 -1.89264e+01  6.33975e+01             
       O -6.85212e+01 -2.18800e+01  4.53191e+01             
       H -6.90333e+01 -2.11293e+01  4.55729e+01             
       H -5.84084e+01  2.02312e+00  5.08467e+01             
       O -5.07532e+01 -1.34324e+01  6.77773e+01             
       H -5.15794e+01 -1.29797e+01  6.76888e+01             
       H -5.06333e+01 -2.60704e+01  6.87248e+01             
       O -7.19881e+01 -8.52969e+00  4.08682e+01             
       H -7.13000e+01 -8.26565e+00  4.15536e+01             
       H -7.19638e+01 -7.63728e+00  4.05121e+01             
       O -6.55292e+01 -2.41697e+01  5.42881e+01             
       H -6.53542e+01 -2.39898e+01  5.52023e+01             
       H -6.49010e+01 -2.37240e+01  5.36355e+01             
       O -7.14895e+01 -4.88422e+00  5.95956e+01             
       H -7.22460e+01 -4.90846e+00  6.02175e+01             
       H -7.07782e+01 -4.55464e+00  6.01159e+01             
       O -6.42985e+01 -8.86970e+00  4.73377e+01             
       H -6.40035e+01 -8.58811e+00  4.81965e+01             
       H -5.64812e+01 -1.25986e+01  4.79567e+01             
       O -6.07748e+01 -2.83723e+01  4.55824e+01             
       H -6.00489e+01 -2.84489e+01  4.62245e+01             
       H -5.81689e+01 -2.62360e+01  5.96835e+01             
       O -6.99011e+01 -1.95765e+01  4.54933e+01             
       H -6.91107e+01 -1.89995e+01  4.54519e+01             
       H -7.05016e+01 -1.90037e+01  4.60510e+01             
       O -4.96612e+01 -2.28198e+01  5.82877e+01             
       H -5.03104e+01 -2.25013e+01  5.89296e+01             
       H -4.89301e+01 -2.21661e+01  5.85110e+01             
       O -6.70258e+01 -1.17843e+01  6.28556e+01             
       H -6.78283e+01 -1.17687e+01  6.34311e+01             
       H -6.74432e+01 -1.18724e+01  6.19657e+01             
       O -6.98564e+01 -1.24638e+01  4.46600e+01             
       H -6.91660e+01 -2.42118e+01  4.48426e+01             
       H -7.06407e+01 -1.19322e+01  4.47897e+01             
       O -6.73157e+01 -2.58287e+01  4.07426e+01             
       H -6.66410e+01 -2.51939e+01  4.10726e+01             
       H -6.70621e+01 -2.67105e+01  4.08999e+01             
       O -7.14352e+01 -1.29570e+01  5.20627e+01             
       H -7.09696e+01 -1.30682e+01  5.28592e+01             
       H -7.16812e+01 -1.20358e+01  5.18365e+01             
       O -6.59492e+01  8.14144e+00  4.55883e+01             
       H -4.67727e+01 -2.10986e+01  4.70929e+01             
       H -6.54777e+01  8.40031e+00  4.46943e+01             
       O -6.49902e+01 -1.86766e+01  6.14229e+01             
       H -6.26316e+01 -2.10530e+01  5.66929e+01             
       H -7.72131e+01 -1.77651e+01  6.11365e+01             
       O -5.96640e+01 -2.75566e+01  5.56782e+01             
       H -6.01008e+01 -2.78665e+01  5.64815e+01             
       H -5.97525e+01 -2.66665e+01  5.54927e+01             
       O -6.79470e+01 -1.80619e+01  5.64734e+01             
       H -6.73350e+01 -1.76001e+01  5.71175e+01             
       H -6.83807e+01 -1.73413e+01  5.59733e+01             
       O -6.14677e+01 -4.16098e+01  5.23637e+01             
       H -6.14984e+01 -4.07874e+01  5.27037e+01             
       H -6.16156e+01 -4.15973e+01  6.38443e+01             
       O -6.57291e+01 -4.67812e+00  5.15209e+01             
       H -6.63905e+01 -4.33232e+00  5.21767e+01             
       H -6.50513e+01 -4.03364e+00  5.16974e+01             
       O -5.81427e+01 -1.92094e+01  5.52926e+01             
       H -5.71904e+01 -1.94158e+01  5.49953e+01             
       H -5.80971e+01 -1.93019e+01  5.62748e+01             
       O -6.56666e+01 -2.06266e+01  6.87570e+01             
       H -6.48222e+01 -2.06812e+01  6.82826e+01             
       H -6.58276e+01 -2.15017e+01  6.90964e+01             
       O -8.12573e+01 -1.53150e+01  4.52236e+01             
       H -8.16221e+01 -1.43882e+01  4.52834e+01             
       H -8.18131e+01 -1.57249e+01  4.58929e+01             
       O -6.07626e+01 -4.47987e+00  6.16634e+01             
       H -6.02089e+01 -3.71540e+00  6.19249e+01             
       H -6.15998e+01 -4.02853e+00  6.14273e+01             
       O -5.97640e+01 -1.23589e+01  4.66390e+01             
       H -6.00245e+01 -1.14383e+01  4.66214e+01             
       H -6.04024e+01 -1.28086e+01  3.36883e+01             
       O -5.73876e+01 -1.30958e+01  2.94035e+01             
       H -5.65511e+01 -1.34249e+01  2.90616e+01             
       H -6.95779e+01 -1.25384e+01  3.01565e+01             
       O -5.23761e+01 -1.62030e+01  3.07383e+01             
       H -5.18649e+01 -1.53621e+01  3.07231e+01             
       H -5.18749e+01 -1.69017e+01  3.02578e+01             
       O -6.59989e+01 -2.14380e+01  3.80952e+01             
       H -6.64518e+01 -2.22730e+01  3.78783e+01             
       H -6.67081e+01 -2.07695e+01  5.06256e+01             
       O -5.17308e+01 -1.32649e+01  3.53802e+01             
       H -6.37844e+01 -1.11340e+01  4.49150e+01             
       H -5.26673e+01 -1.34138e+01  3.51718e+01             
       O -6.15876e+01 -2.63406e+01  5.31297e+01             
       H -6.07926e+01 -2.60105e+01  5.27086e+01             
       H -6.16167e+01 -2.58349e+01  5.39494e+01             
       O -5.19898e+01 -1.47629e+01  3.99954e+01             
       H -5.11478e+01 -1.45770e+01  4.03327e+01             
       H -5.23198e+01 -1.38946e+01  4.00034e+01             
       O -5.51295e+01 -2.75253e+01  5.06149e+01             
       H -5.55355e+01 -2.67832e+01  5.10137e+01             
       H -5.42166e+01 -2.72882e+01  5.05918e+01             
       O -6.17699e+01 -6.28091e+00  5.78090e+01             
       H -6.27271e+01 -6.36596e+00  5.80951e+01             
       H -6.10911e+01 -6.83723e+00  5.81923e+01             
       O -5.20874e+01  5.84454e+00  7.06745e+01             
       H -5.25104e+01  6.71158e+00  7.06046e+01             
       H -5.25649e+01  5.25686e+00  7.00031e+01             
       O -5.75271e+01 -2.64219e+01  6.03562e+01             
       H -6.80033e+01 -2.21964e+01  4.60240e+01             
       H -5.79883e+01 -2.65719e+01  6.11967e+01             
       O -6.30898e+01 -1.82183e+01  5.44259e+01             
       H -5.15687e+01 -1.23219e+01  3.53649e+01             
       H -6.24798e+01 -1.79416e+01  5.37301e+01             
       O -5.58794e+01 -1.18056e+01  4.79693e+01             
       H -6.63423e+01 -3.46741e+00  4.60111e+01             
       H -5.63201e+01 -1.09524e+01  4.80940e+01             
       O -6.05546e+01 -2.41431e+01  5.51877e+01             
       H -7.28406e+01 -2.36938e+01  6.67275e+01             
       H -5.60457e+01 -8.77261e+00  6.05207e+01             
       O -8.78257e+01 -1.43157e+01  5.79096e+01             
       H -8.81851e+01 -1.40109e+01  5.87332e+01             
       H -8.73462e+01 -1.51270e+01  5.81401e+01             
       O -6.01300e+01 -3.33101e+01  4.72169e+01             
       H -6.03343e+01 -3.31222e+01  4.81556e+01             
       H -6.55424e+01 -1.84085e+01  6.22341e+01             
       O -6.45852e+01 -1.12756e+01  4.43618e+01             
       H -6.52956e+01 -1.15142e+01  4.50096e+01             
       H -7.87953e+01 -1.97898e+01  2.32205e+01             
       O -7.17243e+01 -2.22761e+01  4.45840e+01             
       H -7.11940e+01 -2.18303e+01  4.39458e+01             
       H -7.23982e+01 -2.28390e+01  4.40971e+01             
       O -6.26254e+01 -2.39297e+01  3.65013e+01             
       H -6.26365e+01 -2.31857e+01  3.71050e+01             
       H -6.17418e+01 -2.42737e+01  3.64871e+01             
       O -4.65799e+01 -2.73092e+01  5.01075e+01             
       H -4.65526e+01 -1.41985e+01  5.07267e+01             
       H -4.59318e+01 -2.79542e+01  5.03575e+01             
       O -5.56788e+01 -7.61333e+00  5.42613e+01             
       H -4.25207e+01 -7.18346e+00  5.47593e+01             
       H -5.56956e+01 -8.53978e+00  5.45755e+01             
       O -5.92845e+01  2.18170e+00  5.11300e+01             
       H -6.10907e+01 -2.92739e+01  4.54183e+01             
       H -6.45599e+01  4.38779e+00  4.69483e+01             
       O -6.85547e+01 -1.73834e+01  4.79309e+01             
       H -6.87878e+01 -1.70696e+01  4.88309e+01             
       H -6.76301e+01 -1.70748e+01  4.78928e+01             
       O -6.51228e+01 -7.08896e+00  4.05350e+01             
       H -6.55103e+01 -1.87706e+01  4.00642e+01             
       H -6.52920e+01 -7.88888e+00  4.00564e+01             
       O -6.98652e+01 -1.66637e+01  5.44861e+01             
       H -7.01453e+01 -1.75515e+01  5.47614e+01             
       H -7.05880e+01 -1.61186e+01  5.48544e+01             
       O -6.18093e+01 -2.21964e+01  5.35658e+01             
       H -6.10576e+01 -2.16298e+01  5.38090e+01             
       H -6.23875e+01 -2.19756e+01  5.43259e+01             
       O -7.54473e+01 -2.05997e+01  4.35222e+01             
       H -7.50045e+01 -1.98049e+01  5.57048e+01             
       H -7.39192e+01 -3.65528e+01  4.28546e+01             
       O -6.10224e+01 -2.06828e+01  6.22274e+01             
       H -6.05763e+01 -2.11927e+01  6.29431e+01             
       H -6.19460e+01 -2.09457e+01  6.24400e+01             
       O -6.32306e+01 -2.18964e+01  5.09265e+01             
       H -6.40772e+01 -2.15344e+01  5.07129e+01             
       H -6.31616e+01 -2.20348e+01  5.18960e+01             
       O -7.95977e+01 -1.62935e+01  5.36117e+01             
       H -7.90212e+01 -1.62521e+01  5.44130e+01             
       H -8.04827e+01 -1.65469e+01  5.38968e+01             
       O -5.37007e+01 -2.35051e+01  4.65217e+01             
       H -5.33673e+01 -2.26676e+01  4.69650e+01             
       H -5.44680e+01 -2.39362e+01  4.69117e+01             
       O -7.56651e+01 -1.51474e+01  2.46578e+01             
       H -7.60858e+01 -1.48682e+01  2.55010e+01             
       H -7.57346e+01 -1.44485e+01  2.40309e+01             
       O -6.71605e+01 -2.00533e+01  2.27791e+01             
       H -4.67303e+01 -9.63350e+00  3.94577e+01             
       H -6.77455e+01 -1.92685e+01  2.28450e+01             
       O -6.94383e+01 -1.74096e+01  5.07081e+01             
       H -6.87186e+01 -1.71186e+01  5.12772e+01             
       H -7.01627e+01 -1.78040e+01  5.12376e+01             
       O -6.69486e+01 -1.43688e+01  7.25783e+01             
       H -6.77427e+01 -1.43357e+01  7.19272e+01             
       H -6.72437e+01 -1.44898e+01  7.34916e+01             
192                                                         
# CELL(abcABC):   12.41850    12.41850    12.41850    90.00000    90.00000    90.00000  Step:      200000  Bead:       0 x_centroid{angstrom}  cell{angstrom}   
       O -9.37305e+01 -1.97840e+01  7.49093e+01             
       H -9.32127e+01 -1.94048e+01  7.56256e+01             
       H -9.30805e+01 -2.04197e+01  7.45121e+01             
       O -8.36553e+01 -1.67066e+01  6.77268e+01             
       H -7.50958e+01 -1.43031e+01  5.94396e+01             
       H -8.33201e+01 -1.70345e+01  6.68793e+01             
       O -8.38134e+01 -2.72892e+01  5.94480e+01             
       H -8.36974e+01 -1.41926e+01  6.01251e+01             
       H -8.41382e+01 -2.80443e+01  5.99094e+01             
       O -6.95166e+01 -2.78406e+01  5.73711e+01             
       H -6.87512e+01 -2.73034e+01  5.75791e+01             
       H -7.01362e+01 -2.74866e+01  5.80477e+01             
       O -7.22507e+01 -2.48243e+01  5.32907e+01             
       H -7.17226e+01 -2.55766e+01  5.36117e+01             
       H -7.16722e+01 -2.40518e+01  5.34551e+01             
       O -7.33779e+01 -2.72255e+01  6.96724e+01             
       H -7.42538e+01 -2.72918e+01  7.00523e+01             
       H -7.28430e+01 -2.75160e+01  7.03976e+01             
       O -7.70521e+01 -2.68834e+01  4.95821e+01             
       H -7.67433e+01 -2.72865e+01  5.04133e+01             
       H -7.36852e+01 -4.52544e+00  5.96237e+01             
       O -6.47420e+01 -1.55769e+01  7.68293e+01             
       H -6.47275e+01 -1.47489e+01  7.74095e+01             
       H -6.48783e+01 -2.87607e+01  7.74938e+01             
       O -8.06318e+01 -1.20813e+01  4.32805e+01             
       H -8.02204e+01 -1.27178e+01  4.39076e+01             
       H -8.10232e+01 -1.15105e+01  4.39395e+01             
       O -8.33033e+01 -3.43721e+01  6.33875e+01             
       H -8.25908e+01 -3.38255e+01  6.31500e+01             
       H -8.39866e+01 -3.44571e+01  6.27053e+01             
       O -8.47891e+01 -7.09855e+00  6.52466e+01             
       H -8.54721e+01 -7.32318e+00  6.58970e+01             
       H -8.51295e+01 -7.27174e+00  6.43325e+01             
       O -7.99904e+01 -1.84986e+01  5.20456e+01             
       H -8.07659e+01 -1.82480e+01  5.26201e+01             
       H -7.74389e+01 -1.76295e+01  5.63829e+01             
       O -6.91268e+01 -3.64820e+01  5.13231e+01             
       H -6.83697e+01 -3.61059e+01  5.08173e+01             
       H -7.40190e+01 -3.09307e+01  6.76774e+01             
       O -7.98107e+01 -1.95220e+01  5.53274e+01             
       H -7.99572e+01 -1.87150e+01  5.48471e+01             
       H -8.01589e+01 -2.03049e+01  5.48152e+01             
       O -6.50026e+01 -2.52982e+01  6.89432e+01             
       H -6.48792e+01 -2.56190e+01  6.80299e+01             
       H -6.48989e+01 -2.43229e+01  6.89275e+01             
       O -7.98025e+01 -1.65046e+01  6.70542e+01             
       H -7.94259e+01 -1.62922e+01  6.79266e+01             
       H -8.06571e+01 -1.59281e+01  6.69667e+01             
       O -8.54316e+01 -1.27397e+01  5.05138e+01             
       H -8.59469e+01 -2.60066e+01  5.05859e+01             
       H -8.52646e+01 -1.24793e+01  5.14374e+01             
       O -8.34459e+01 -2.87851e+01  5.02152e+01             
       H -8.30138e+01 -2.79397e+01  5.03840e+01             
       H -8.42705e+01 -2.86879e+01  5.06803e+01             
       O -9.07543e+01 -1.64508e+01  5.79301e+01             
       H -9.08769e+01 -1.72326e+01  5.85175e+01             
       H -9.13418e+01 -1.56643e+01  5.80920e+01             
       O -7.71304e+01  2.19390e+00  5.65090e+01             
       H -6.18698e+01 -2.82566e+01  5.47866e+01             
       H -7.78587e+01  2.47293e+00  5.71138e+01             
       O -7.69173e+01 -2.09153e+01  6.67769e+01             
       H -7.40354e+01 -1.51509e+01  6.46201e+01             
       H -8.97884e+01 -2.01915e+01  6.72170e+01             
       O -7.02390e+01 -3.08052e+01  6.08727e+01             
       H -6.95410e+01 -3.11455e+01  6.14687e+01             
       H -7.07208e+01 -3.00751e+01  6.13058e+01             
       O -7.96123e+01 -2.21335e+01  6.25491e+01             
       H -7.89141e+01 -2.17141e+01  6.30551e+01             
       H -7.92400e+01 -2.26104e+01  6.17586e+01             
       O -7.35512e+01 -4.34139e+01  6.25955e+01             
       H -7.35401e+01 -4.39498e+01  6.18142e+01             
       H -7.45006e+01 -4.35452e+01  7.52937e+01             
       O -7.76159e+01 -8.75917e+00  6.40446e+01             
       H -7.68523e+01 -9.33274e+00  6.36865e+01             
       H -7.72722e+01 -7.92243e+00  6.37366e+01             
       O -7.50599e+01 -2.41989e+01  6.56070e+01             
       H -7.41726e+01 -2.45561e+01  6.58310e+01             
       H -7.50307e+01 -2.34336e+01  6.62016e+01             
       O -7.42887e+01 -2.27721e+01  8.04468e+01             
       H -7.34618e+01 -2.31912e+01  8.07895e+01             
       H -7.48913e+01 -2.31242e+01  8.11429e+01             
       O -1.04639e+02 -1.59489e+01  5.06215e+01             
       H -1.03919e+02 -1.52912e+01  5.08541e+01             
       H -1.05404e+02 -1.53492e+01  5.07444e+01             
       O -6.94831e+01 -1.02269e+01  6.98320e+01             
       H -6.95051e+01 -1.03400e+01  7.08159e+01             
       H -7.02760e+01 -9.74322e+00  6.95298e+01             
       O -7.42834e+01 -2.00918e+01  5.47911e+01             
       H -7.39643e+01 -2.08525e+01  5.52236e+01             
       H -7.51064e+01 -2.04621e+01  4.20452e+01             
       O -7.28393e+01 -1.02443e+01  3.68694e+01             
       H -7.36814e+01 -9.76028e+00  3.69689e+01             
       H -8.54457e+01 -1.11901e+01  3.70501e+01             
       O -6.39224e+01 -1.86407e+01  3.81424e+01             
       H -6.46741e+01 -1.81568e+01  3.76007e+01             
       H -6.41392e+01 -1.82912e+01  3.90260e+01             
       O -8.27068e+01 -2.62301e+01  4.20538e+01             
       H -8.28487e+01 -2.68107e+01  4.27742e+01             
       H -8.20247e+01 -2.55873e+01  5.48312e+01             
       O -6.49142e+01 -1.79876e+01  4.10442e+01             
       H -7.87685e+01 -1.33525e+01  4.53269e+01             
       H -6.45503e+01 -1.80615e+01  4.19432e+01             
       O -7.67161e+01 -2.62968e+01  6.64351e+01             
       H -7.65539e+01 -2.54154e+01  6.60477e+01             
       H -7.58372e+01 -2.66698e+01  6.66589e+01             
       O -6.31719e+01 -1.97876e+01  4.57926e+01             
       H -6.27423e+01 -2.06770e+01  4.56570e+01             
       H -6.41473e+01 -1.98529e+01  4.59465e+01             
       O -7.16904e+01 -3.37057e+01  5.65581e+01             
       H -7.11817e+01 -3.28732e+01  5.66592e+01             
       H -7.15979e+01 -3.39104e+01  5.56552e+01             
       O -8.05385e+01 -9.72653e+00  6.64142e+01             
       H -8.00608e+01 -1.02813e+01  6.70121e+01             
       H -8.01460e+01 -9.94480e+00  6.55408e+01             
       O -6.68682e+01  3.36661e+00  8.33160e+01             
       H -6.77972e+01  3.27884e+00  8.30937e+01             
       H -6.68454e+01  4.22572e+00  8.38117e+01             
       O -7.37701e+01 -3.00557e+01  6.80024e+01             
       H -7.62576e+01 -2.64600e+01  4.91708e+01             
       H -7.28269e+01 -2.98690e+01  6.77675e+01             
       O -7.46687e+01 -1.38535e+01  6.01602e+01             
       H -6.58120e+01 -1.79966e+01  4.12004e+01             
       H -7.42128e+01 -1.46191e+01  6.06276e+01             
       O -7.69051e+01 -1.83301e+01  5.59953e+01             
       H -7.73862e+01 -9.79169e+00  5.56774e+01             
       H -7.60354e+01 -1.85601e+01  5.64180e+01             
       O -6.98237e+01 -2.25149e+01  6.03595e+01             
       H -8.31181e+01 -2.22658e+01  7.26043e+01             
       H -7.08102e+01 -1.72589e+01  6.83535e+01             
       O -9.71362e+01 -2.43372e+01  6.95978e+01             
       H -9.75325e+01 -2.52615e+01  6.94845e+01             
       H -9.63935e+01 -2.44058e+01  6.90408e+01             
       O -7.41191e+01 -3.97891e+01  5.44186e+01             
       H -7.36439e+01 -3.93800e+01  5.51556e+01             
       H -7.72889e+01 -2.09256e+01  6.58460e+01             
       O -7.95697e+01 -1.38007e+01  4.56600e+01             
       H -7.95867e+01 -1.36292e+01  4.66436e+01             
       H -9.41453e+01 -2.57906e+01  2.65269e+01             
       O -8.26043e+01 -2.54404e+01  4.89726e+01             
       H -8.16527e+01 -2.56656e+01  4.87081e+01             
       H -8.26122e+01 -2.52028e+01  4.98838e+01             
       O -7.60642e+01 -2.70407e+01  4.55019e+01             
       H -7.66368e+01 -2.77972e+01  4.55235e+01             
       H -7.65357e+01 -2.62678e+01  4.49950e+01             
       O -6.13427e+01 -3.02338e+01  5.83152e+01             
       H -6.20118e+01 -1.85244e+01  5.82077e+01             
       H -6.11343e+01 -3.00620e+01  5.73602e+01             
       O -6.58951e+01 -1.08198e+01  6.03376e+01             
       H -5.25190e+01 -1.11281e+01  6.03150e+01             
       H -6.60808e+01 -1.01336e+01  5.96206e+01             
       O -7.36611e+01 -4.02346e+00  6.04621e+01             
       H -6.98426e+01 -3.58416e+01  5.11879e+01             
       H -7.97884e+01 -5.22624e+00  5.16288e+01             
       O -8.33588e+01 -2.23221e+01  5.39256e+01             
       H -8.34373e+01 -2.16883e+01  5.32083e+01             
       H -8.24421e+01 -2.24745e+01  5.38832e+01             
       O -7.95951e+01 -1.32337e+01  4.81891e+01             
       H -7.88683e+01 -2.62221e+01  4.85464e+01             
       H -7.91311e+01 -1.23564e+01  4.81314e+01             
       O -8.50115e+01 -1.96924e+01  6.00601e+01             
       H -8.51527e+01 -1.89727e+01  5.93967e+01             
       H -8.40982e+01 -1.94325e+01  6.04220e+01             
       O -7.52921e+01 -2.37092e+01  6.04923e+01             
       H -7.49803e+01 -2.31789e+01  5.97757e+01             
       H -7.49593e+01 -2.46273e+01  6.03842e+01             
       O -8.63368e+01 -1.53835e+01  5.12825e+01             
       H -8.70573e+01 -1.60270e+01  6.35724e+01             
       H -8.23608e+01 -3.58072e+01  4.83654e+01             
       O -7.54394e+01 -2.27603e+01  7.55168e+01             
       H -7.52576e+01 -2.33935e+01  7.61502e+01             
       H -7.55747e+01 -2.31797e+01  7.46141e+01             
       O -7.37206e+01 -2.18503e+01  5.86805e+01             
       H -7.31474e+01 -2.13403e+01  5.92514e+01             
       H -7.30732e+01 -2.18401e+01  5.79346e+01             
       O -9.36827e+01 -1.79042e+01  5.87365e+01             
       H -9.42362e+01 -1.80086e+01  5.95853e+01             
       H -9.40244e+01 -1.70744e+01  5.84052e+01             
       O -6.57158e+01 -2.98640e+01  4.91043e+01             
       H -6.53433e+01 -2.89940e+01  4.89087e+01             
       H -6.64710e+01 -2.96966e+01  4.96211e+01             
       O -9.12708e+01 -1.89797e+01  3.45015e+01             
       H -9.09481e+01 -1.87285e+01  3.53874e+01             
       H -9.21916e+01 -1.86370e+01  3.45706e+01             
       O -8.17134e+01 -2.67467e+01  2.67667e+01             
       H -6.11355e+01 -1.70608e+01  4.87373e+01             
       H -8.23574e+01 -2.69023e+01  2.74478e+01             
       O -8.23304e+01 -1.91562e+01  5.66837e+01             
       H -8.14362e+01 -1.91461e+01  5.64055e+01             
       H -8.21181e+01 -1.88546e+01  5.75412e+01             
       O -8.27771e+01 -1.78232e+01  7.77483e+01             
       H -8.34658e+01 -1.85302e+01  7.77513e+01             
       H -8.27752e+01 -1.74066e+01  7.68220e+01             
