192                                                         
# CELL(abcABC):   12.41850    12.41850    12.41850    90.00000    90.00000    90.00000  Step:           0  Bead:       0 x_centroid{angstrom}  cell{angstrom}   
       O -8.09386e+01 -1.16246e+01  6.70353e+01             
       H -8.09771e+01 -1.23534e+01  6.64253e+01             
       H -8.02527e+01 -1.18103e+01  6.76668e+01             
       O -7.73768e+01 -1.29886e+01  6.13922e+01             
       H -6.74429e+01 -2.03101e+01  6.14403e+01             
       H -7.69820e+01 -1.21930e+01  6.10103e+01             
       O -7.82658e+01 -2.39437e+01  5.57903e+01             
       H -7.74406e+01 -1.19787e+01  5.54919e+01             
       H -7.80318e+01 -2.31126e+01  5.62621e+01             
       O -6.30927e+01 -2.13303e+01  5.49216e+01             
       H -6.30084e+01 -2.16487e+01  5.59088e+01             
       H -6.38872e+01 -2.07386e+01  5.49036e+01             
       O -6.17267e+01 -2.28993e+01  5.31549e+01             
       H -6.23757e+01 -2.29226e+01  5.24383e+01             
       H -6.21936e+01 -2.22968e+01  5.38439e+01             
       O -6.42798e+01 -1.74223e+01  6.63362e+01             
       H -6.41746e+01 -1.65222e+01  6.60446e+01             
       H -6.35729e+01 -1.76559e+01  6.69429e+01             
       O -7.79983e+01 -2.45756e+01  3.91647e+01             
       H -7.85945e+01 -2.39522e+01  3.95949e+01             
       H -6.74729e+01  1.83877e+00  5.35874e+01             
       O -5.71860e+01 -1.58314e+01  7.28412e+01             
       H -5.70266e+01 -1.67654e+01  7.32211e+01             
       H -5.81287e+01 -2.79936e+01  7.29770e+01             
       O -7.80954e+01 -7.48128e+00  4.22089e+01             
       H -7.85835e+01 -7.47643e+00  4.30457e+01             
       H -7.84215e+01 -8.29418e+00  4.17470e+01             
       O -6.90354e+01 -2.28012e+01  5.83028e+01             
       H -6.97256e+01 -2.27582e+01  5.90243e+01             
       H -6.89156e+01 -2.37905e+01  5.81150e+01             
       O -7.26878e+01 -8.73889e+00  6.16271e+01             
       H -7.29077e+01 -8.68074e+00  6.25671e+01             
       H -7.35062e+01 -8.51012e+00  6.11906e+01             
       O -6.82359e+01 -1.10602e+01  4.96527e+01             
       H -6.86614e+01 -1.12475e+01  5.05027e+01             
       H -6.05284e+01 -1.48118e+01  4.86053e+01             
       O -6.45929e+01 -3.30346e+01  5.00690e+01             
       H -6.40266e+01 -3.28284e+01  4.93090e+01             
       H -6.34009e+01 -2.62478e+01  6.18794e+01             
       O -7.52752e+01 -2.03731e+01  4.79404e+01             
       H -7.55747e+01 -1.97867e+01  4.72032e+01             
       H -7.52311e+01 -2.12031e+01  4.74529e+01             
       O -5.59039e+01 -2.71760e+01  6.31324e+01             
       H -5.60652e+01 -2.70921e+01  6.21609e+01             
       H -5.49754e+01 -2.75035e+01  6.31109e+01             
       O -7.24636e+01 -1.39647e+01  6.35270e+01             
       H -7.27858e+01 -1.34343e+01  6.28099e+01             
       H -7.16608e+01 -1.44652e+01  6.32182e+01             
       O -7.57922e+01 -1.83175e+01  4.61362e+01             
       H -7.62531e+01 -3.05865e+01  4.53162e+01             
       H -7.62824e+01 -1.77157e+01  4.67126e+01             
       O -7.31540e+01 -2.39920e+01  4.48014e+01             
       H -7.29186e+01 -2.41673e+01  4.57192e+01             
       H -7.23135e+01 -2.38135e+01  4.44305e+01             
       O -7.60485e+01 -1.27873e+01  5.44996e+01             
       H -7.58811e+01 -1.19057e+01  5.40958e+01             
       H -7.53194e+01 -1.31347e+01  5.50206e+01             
       O -6.74537e+01  8.88335e+00  5.47674e+01             
       H -5.53380e+01 -2.48838e+01  4.87357e+01             
       H -6.75118e+01  8.15046e+00  5.41243e+01             
       O -7.21531e+01 -2.18224e+01  6.41811e+01             
       H -6.48604e+01 -2.82939e+01  6.04595e+01             
       H -8.52546e+01 -2.21083e+01  6.48491e+01             
       O -6.73532e+01 -2.99019e+01  5.83442e+01             
       H -6.65800e+01 -2.94968e+01  5.78995e+01             
       H -6.80518e+01 -2.93366e+01  5.82235e+01             
       O -6.96016e+01 -1.56323e+01  5.76705e+01             
       H -6.97809e+01 -1.57217e+01  5.86503e+01             
       H -7.03458e+01 -1.59578e+01  5.71665e+01             
       O -6.07466e+01 -4.33802e+01  5.28061e+01             
       H -5.99016e+01 -4.38044e+01  5.28744e+01             
       H -6.13827e+01 -4.39530e+01  6.47190e+01             
       O -7.48264e+01 -9.20667e+00  5.76175e+01             
       H -7.41757e+01 -8.47110e+00  5.76429e+01             
       H -7.42978e+01 -1.00268e+01  5.76306e+01             
       O -6.78150e+01 -1.98370e+01  5.69740e+01             
       H -6.77141e+01 -1.89207e+01  5.73174e+01             
       H -6.74001e+01 -2.03280e+01  5.77213e+01             
       O -6.86242e+01 -1.98266e+01  7.64196e+01             
       H -6.91270e+01 -1.97067e+01  7.56246e+01             
       H -6.91699e+01 -1.95678e+01  7.71393e+01             
       O -8.52090e+01 -1.71799e+01  4.66775e+01             
       H -8.49952e+01 -1.71849e+01  4.57130e+01             
       H -8.60567e+01 -1.76787e+01  4.65851e+01             
       O -6.30568e+01 -6.35674e+00  6.39778e+01             
       H -6.34839e+01 -5.92678e+00  6.47271e+01             
       H -6.37299e+01 -6.96134e+00  6.36187e+01             
       O -6.73736e+01 -1.35990e+01  5.31021e+01             
       H -6.75488e+01 -1.41119e+01  5.22912e+01             
       H -6.70188e+01 -1.42142e+01  4.13743e+01             
       O -6.15170e+01 -1.37288e+01  3.12123e+01             
       H -6.10319e+01 -1.34737e+01  3.03834e+01             
       H -7.36641e+01 -1.29479e+01  3.17698e+01             
       O -5.63540e+01 -1.89792e+01  3.57546e+01             
       H -5.70774e+01 -1.94768e+01  3.53786e+01             
       H -5.59114e+01 -1.86707e+01  3.49329e+01             
       O -7.28563e+01 -2.50843e+01  4.12692e+01             
       H -7.26064e+01 -2.55047e+01  4.04480e+01             
       H -7.35189e+01 -2.43863e+01  5.35083e+01             
       O -5.79769e+01 -1.63090e+01  3.88183e+01             
       H -6.76588e+01 -9.79816e+00  4.61752e+01             
       H -5.83633e+01 -1.69289e+01  3.82144e+01             
       O -6.87833e+01 -2.54645e+01  5.81109e+01             
       H -6.93340e+01 -2.62277e+01  5.79847e+01             
       H -6.84059e+01 -2.55685e+01  5.89743e+01             
       O -6.03518e+01 -1.96881e+01  4.49771e+01             
       H -6.03005e+01 -1.98450e+01  4.59539e+01             
       H -5.95492e+01 -2.00309e+01  4.45776e+01             
       O -6.17297e+01 -2.84006e+01  5.23218e+01             
       H -6.14048e+01 -2.92263e+01  5.26725e+01             
       H -6.10204e+01 -2.79850e+01  5.18314e+01             
       O -6.68439e+01 -5.51601e+00  6.51156e+01             
       H -6.71916e+01 -6.35998e+00  6.48386e+01             
       H -6.60700e+01 -5.73687e+00  6.56422e+01             
       O -5.89152e+01  4.92987e+00  7.21283e+01             
       H -5.92782e+01  4.55634e+00  7.29235e+01             
       H -5.92431e+01  5.81162e+00  7.21257e+01             
       O -6.25497e+01 -2.66597e+01  6.22844e+01             
       H -7.81627e+01 -2.53939e+01  3.96666e+01             
       H -6.29572e+01 -2.68475e+01  6.31314e+01             
       O -6.69637e+01 -2.11275e+01  6.13581e+01             
       H -5.69842e+01 -1.60432e+01  3.87158e+01             
       H -6.70001e+01 -2.13222e+01  6.04234e+01             
       O -5.98241e+01 -1.50340e+01  4.79980e+01             
       H -6.82354e+01 -3.55502e+00  5.53415e+01             
       H -6.02243e+01 -1.56958e+01  4.74172e+01             
       O -6.56515e+01 -2.60592e+01  5.81431e+01             
       H -7.89804e+01 -2.59974e+01  7.02425e+01             
       H -6.51381e+01 -1.26451e+01  6.23225e+01             
       O -9.08434e+01 -1.59307e+01  6.32621e+01             
       H -9.11186e+01 -1.67083e+01  6.37567e+01             
       H -9.00801e+01 -1.56466e+01  6.38711e+01             
       O -6.74598e+01 -3.80823e+01  4.82498e+01             
       H -6.65206e+01 -3.81940e+01  4.84677e+01             
       H -7.14479e+01 -2.14497e+01  6.48442e+01             
       O -6.69060e+01 -9.17233e+00  4.63333e+01             
       H -6.61461e+01 -9.66473e+00  4.61162e+01             
       H -8.66717e+01 -2.36917e+01  2.32926e+01             
       O -7.73904e+01 -2.34863e+01  4.63193e+01             
       H -7.64373e+01 -2.36093e+01  4.63309e+01             
       H -7.77136e+01 -2.43898e+01  4.60787e+01             
       O -7.12013e+01 -2.34067e+01  4.27285e+01             
       H -7.17934e+01 -2.38821e+01  4.21421e+01             
       H -7.02607e+01 -2.35614e+01  4.25848e+01             
       O -5.16837e+01 -2.73047e+01  5.26740e+01             
       H -5.07814e+01 -1.52659e+01  5.26173e+01             
       H -5.15390e+01 -2.65138e+01  5.31959e+01             
       O -6.17518e+01 -5.94237e+00  5.52541e+01             
       H -4.89411e+01 -6.13221e+00  5.43819e+01             
       H -6.15004e+01 -6.75225e+00  5.57778e+01             
       O -6.69113e+01  2.36314e+00  5.30011e+01             
       H -6.54873e+01 -3.32882e+01  4.96645e+01             
       H -6.75591e+01  2.06653e+00  4.97088e+01             
       O -7.17266e+01 -1.81918e+01  4.97217e+01             
       H -7.19146e+01 -1.90325e+01  5.00972e+01             
       H -7.26562e+01 -1.80157e+01  4.94938e+01             
       O -7.06493e+01 -1.05628e+01  4.83799e+01             
       H -7.10459e+01 -2.23271e+01  4.89759e+01             
       H -6.98010e+01 -1.07980e+01  4.88479e+01             
       O -7.78832e+01 -1.62460e+01  5.66468e+01             
       H -7.78290e+01 -1.53376e+01  5.71087e+01             
       H -7.83746e+01 -1.60659e+01  5.57964e+01             
       O -7.04047e+01 -2.06185e+01  5.61699e+01             
       H -7.03021e+01 -2.15342e+01  5.65117e+01             
       H -6.97572e+01 -2.00751e+01  5.66280e+01             
       O -7.75743e+01 -2.87832e+01  4.72631e+01             
       H -7.84333e+01 -2.91937e+01  5.99134e+01             
       H -7.79570e+01 -3.91271e+01  4.64382e+01             
       O -6.34733e+01 -2.28466e+01  6.35796e+01             
       H -6.40943e+01 -2.35730e+01  6.37614e+01             
       H -6.40759e+01 -2.20774e+01  6.33187e+01             
       O -6.97984e+01 -2.35957e+01  5.19246e+01             
       H -7.06687e+01 -2.31944e+01  5.15821e+01             
       H -7.01028e+01 -2.43210e+01  5.23879e+01             
       O -8.50094e+01 -1.64373e+01  5.63898e+01             
       H -8.55742e+01 -1.56558e+01  5.61793e+01             
       H -8.55665e+01 -1.71519e+01  5.59451e+01             
       O -6.00557e+01 -2.45951e+01  4.75292e+01             
       H -5.92552e+01 -2.41823e+01  4.78339e+01             
       H -5.98267e+01 -2.55654e+01  4.73556e+01             
       O -8.28305e+01 -1.95855e+01  2.89302e+01             
       H -8.25370e+01 -1.87397e+01  2.93188e+01             
       H -8.27152e+01 -2.02972e+01  2.95964e+01             
       O -7.50950e+01 -2.32001e+01  2.33137e+01             
       H -5.51774e+01 -9.69958e+00  4.00305e+01             
       H -7.53820e+01 -2.31063e+01  2.42197e+01             
       O -7.42628e+01 -1.74445e+01  4.92982e+01             
       H -7.46495e+01 -1.78717e+01  5.00600e+01             
       H -7.42448e+01 -1.65167e+01  4.94680e+01             
       O -7.01521e+01 -1.68398e+01  7.88198e+01             
       H -7.02021e+01 -1.65999e+01  7.78795e+01             
       H -7.09715e+01 -1.66409e+01  7.91892e+01             
192                                                         
# CELL(abcABC):   12.41850    12.41850    12.41850    90.00000    90.00000    90.00000  Step:      200000  Bead:       0 x_centroid{angstrom}  cell{angstrom}   
       O -9.23208e+01 -1.30943e+01  7.47330e+01             
       H -9.32112e+01 -1.28963e+01  7.50524e+01             
       H -9.21206e+01 -1.24124e+01  7.40775e+01             
       O -9.28877e+01 -1.87308e+01  6.63459e+01             
       H -8.24455e+01 -2.67261e+01  6.38470e+01             
       H -9.23377e+01 -1.87389e+01  6.55581e+01             
       O -9.30954e+01 -2.88204e+01  6.16681e+01             
       H -9.37537e+01 -1.70462e+01  6.14128e+01             
       H -9.31897e+01 -2.81703e+01  6.09306e+01             
       O -7.46229e+01 -2.56839e+01  6.81180e+01             
       H -7.47650e+01 -2.66911e+01  6.80568e+01             
       H -7.55018e+01 -2.54414e+01  6.77741e+01             
       O -7.98070e+01 -2.45202e+01  5.84884e+01             
       H -8.05543e+01 -2.43307e+01  5.79273e+01             
       H -8.00858e+01 -2.40755e+01  5.93526e+01             
       O -8.22329e+01 -2.41775e+01  7.76832e+01             
       H -8.29095e+01 -2.40389e+01  7.83697e+01             
       H -8.15634e+01 -2.47233e+01  7.80877e+01             
       O -9.03863e+01 -2.97638e+01  4.67088e+01             
       H -9.07775e+01 -2.90143e+01  4.62331e+01             
       H -8.19841e+01 -1.91451e+00  5.94153e+01             
       O -7.14007e+01 -2.33094e+01  8.51473e+01             
       H -7.14375e+01 -2.29656e+01  8.60221e+01             
       H -7.22602e+01 -3.55887e+01  8.46881e+01             
       O -8.99706e+01 -1.12950e+01  4.83740e+01             
       H -8.98864e+01 -1.03033e+01  4.81682e+01             
       H -8.94240e+01 -1.14996e+01  4.91634e+01             
       O -8.36268e+01 -2.70432e+01  6.72623e+01             
       H -8.40993e+01 -2.62789e+01  6.69055e+01             
       H -8.39631e+01 -2.77953e+01  6.66816e+01             
       O -9.03401e+01 -1.43367e+01  7.01953e+01             
       H -8.95098e+01 -1.42036e+01  7.06391e+01             
       H -9.09944e+01 -1.39112e+01  7.07087e+01             
       O -7.90148e+01 -1.57075e+01  5.32772e+01             
       H -7.96622e+01 -1.52334e+01  5.38769e+01             
       H -7.61802e+01 -2.15059e+01  5.78699e+01             
       O -8.35771e+01 -3.85392e+01  5.94486e+01             
       H -8.39449e+01 -3.90927e+01  6.02046e+01             
       H -8.05281e+01 -2.65024e+01  6.77012e+01             
       O -8.82176e+01 -2.43268e+01  5.82002e+01             
       H -8.78884e+01 -2.52443e+01  5.82912e+01             
       H -8.87517e+01 -2.42585e+01  5.89939e+01             
       O -7.55880e+01 -3.34827e+01  7.34505e+01             
       H -7.50855e+01 -3.26759e+01  7.36652e+01             
       H -7.53593e+01 -3.36372e+01  7.24571e+01             
       O -9.03765e+01 -1.73613e+01  7.46239e+01             
       H -8.97043e+01 -1.73817e+01  7.39249e+01             
       H -9.12219e+01 -1.71377e+01  7.41921e+01             
       O -8.81971e+01 -2.28827e+01  5.53085e+01             
       H -8.78379e+01 -3.53218e+01  5.62039e+01             
       H -8.84215e+01 -2.19260e+01  5.51551e+01             
       O -8.91902e+01 -3.26813e+01  5.44115e+01             
       H -8.98004e+01 -3.26227e+01  5.51518e+01             
       H -8.95978e+01 -3.22306e+01  5.37265e+01             
       O -9.08864e+01 -1.90349e+01  6.87519e+01             
       H -9.17154e+01 -1.90334e+01  6.81787e+01             
       H -9.11679e+01 -1.95170e+01  6.95809e+01             
       O -8.28615e+01  6.33232e+00  5.75823e+01             
       H -7.51337e+01 -2.70737e+01  5.94056e+01             
       H -8.35296e+01  6.85099e+00  5.81137e+01             
       O -9.03557e+01 -3.10562e+01  7.71191e+01             
       H -8.11038e+01 -2.87826e+01  7.05296e+01             
       H -1.02987e+02 -3.15292e+01  7.63211e+01             
       O -8.70237e+01 -3.14127e+01  6.79131e+01             
       H -8.68389e+01 -3.04993e+01  6.75138e+01             
       H -8.78202e+01 -3.17644e+01  6.73802e+01             
       O -8.57913e+01 -2.28667e+01  7.09513e+01             
       H -8.64899e+01 -2.35108e+01  7.07674e+01             
       H -8.61816e+01 -2.20216e+01  7.08399e+01             
       O -7.49682e+01 -4.84759e+01  6.22319e+01             
       H -7.48580e+01 -4.82916e+01  6.31822e+01             
       H -7.48493e+01 -4.75964e+01  7.43026e+01             
       O -8.77029e+01 -1.59366e+01  6.78193e+01             
       H -8.86604e+01 -1.60797e+01  6.80091e+01             
       H -8.76212e+01 -1.61780e+01  6.68401e+01             
       O -7.94712e+01 -2.11142e+01  6.15659e+01             
       H -7.86756e+01 -2.12017e+01  6.21642e+01             
       H -7.99763e+01 -2.05724e+01  6.21971e+01             
       O -8.13817e+01 -2.28607e+01  8.17760e+01             
       H -8.11417e+01 -2.20296e+01  8.13256e+01             
       H -8.23004e+01 -2.28486e+01  8.16196e+01             
       O -1.04995e+02 -2.14040e+01  5.46389e+01             
       H -1.05454e+02 -2.19800e+01  5.39422e+01             
       H -1.05283e+02 -2.04596e+01  5.43930e+01             
       O -8.03636e+01 -1.23243e+01  6.73998e+01             
       H -7.93393e+01 -1.22940e+01  6.75040e+01             
       H -8.06529e+01 -1.16964e+01  6.80296e+01             
       O -8.51409e+01 -1.71352e+01  5.85952e+01             
       H -8.51297e+01 -1.62957e+01  5.80927e+01             
       H -8.59696e+01 -1.75305e+01  4.59770e+01             
       O -7.32822e+01 -1.75696e+01  3.67065e+01             
       H -7.33649e+01 -1.73659e+01  3.58225e+01             
       H -8.53650e+01 -1.68040e+01  3.71860e+01             
       O -6.56279e+01 -2.33171e+01  4.02944e+01             
       H -6.51269e+01 -2.41797e+01  4.02937e+01             
       H -6.64966e+01 -2.36214e+01  3.99579e+01             
       O -8.71288e+01 -2.92874e+01  5.27912e+01             
       H -8.74816e+01 -2.87508e+01  5.20338e+01             
       H -8.61566e+01 -2.91617e+01  6.51283e+01             
       O -7.21558e+01 -1.46027e+01  4.93799e+01             
       H -7.84022e+01 -1.36859e+01  5.11998e+01             
       H -7.14851e+01 -1.43052e+01  5.00502e+01             
       O -8.78856e+01 -3.07249e+01  7.04049e+01             
       H -8.77132e+01 -3.05717e+01  6.94317e+01             
       H -8.87341e+01 -3.03550e+01  7.07439e+01             
       O -7.43417e+01 -2.30133e+01  5.26458e+01             
       H -7.48170e+01 -2.28732e+01  5.34915e+01             
       H -7.35782e+01 -2.35376e+01  5.29277e+01             
       O -8.08648e+01 -3.13072e+01  6.35117e+01             
       H -8.02904e+01 -3.05863e+01  6.32019e+01             
       H -8.16735e+01 -3.12032e+01  6.29763e+01             
       O -8.45220e+01 -7.62898e+00  6.86697e+01             
       H -8.40638e+01 -6.85551e+00  6.90390e+01             
       H -8.53666e+01 -7.31541e+00  6.84926e+01             
       O -7.26959e+01  2.65234e-01  7.91467e+01             
       H -7.34319e+01 -1.47158e-01  7.97390e+01             
       H -7.22334e+01  7.59456e-01  7.98443e+01             
       O -8.07921e+01 -2.73795e+01  6.76043e+01             
       H -9.10282e+01 -3.04469e+01  4.65416e+01             
       H -8.16571e+01 -2.72861e+01  6.71525e+01             
       O -8.25808e+01 -2.59998e+01  6.32731e+01             
       H -7.29110e+01 -1.40108e+01  4.95019e+01             
       H -8.28836e+01 -2.52739e+01  6.38605e+01             
       O -7.53798e+01 -2.11455e+01  5.82442e+01             
       H -8.21996e+01 -5.36310e+00  5.73501e+01             
       H -7.53778e+01 -2.01687e+01  5.79410e+01             
       O -8.16051e+01 -2.85614e+01  6.41034e+01             
       H -9.38198e+01 -2.84638e+01  7.55316e+01             
       H -8.13517e+01 -1.86424e+01  6.60391e+01             
       O -1.09807e+02 -1.47569e+01  6.96617e+01             
       H -1.09195e+02 -1.43142e+01  7.03038e+01             
       H -1.09452e+02 -1.47018e+01  6.87888e+01             
       O -8.77780e+01 -3.93781e+01  5.84911e+01             
       H -8.70262e+01 -3.96296e+01  5.79320e+01             
       H -9.05933e+01 -3.01003e+01  7.70767e+01             
       O -7.76786e+01 -1.38463e+01  5.19168e+01             
       H -7.80138e+01 -1.46521e+01  5.23557e+01             
       H -1.01178e+02 -2.73189e+01  2.62204e+01             
       O -9.64998e+01 -2.90731e+01  5.26217e+01             
       H -9.63422e+01 -3.00448e+01  5.27629e+01             
       H -9.56680e+01 -2.87559e+01  5.21989e+01             
       O -8.97751e+01 -3.37553e+01  5.07881e+01             
       H -8.99423e+01 -3.43932e+01  5.14925e+01             
       H -8.88458e+01 -3.36352e+01  5.04002e+01             
       O -6.72852e+01 -3.22536e+01  5.88721e+01             
       H -6.82643e+01 -1.97136e+01  5.87614e+01             
       H -6.69941e+01 -3.27185e+01  5.96585e+01             
       O -7.08103e+01 -9.91537e+00  6.28008e+01             
       H -5.81895e+01 -1.06333e+01  6.33496e+01             
       H -7.13897e+01 -9.31689e+00  6.33178e+01             
       O -8.10960e+01 -2.32687e+00  5.95426e+01             
       H -8.37632e+01 -3.76042e+01  5.96947e+01             
       H -7.86279e+01 -3.85781e+00  5.39652e+01             
       O -8.73785e+01 -1.90171e+01  6.31864e+01             
       H -8.67529e+01 -1.84287e+01  6.26880e+01             
       H -8.78188e+01 -1.84547e+01  6.38763e+01             
       O -8.72751e+01 -1.39663e+01  4.86478e+01             
       H -8.77532e+01 -2.56323e+01  4.90317e+01             
       H -8.76825e+01 -1.46409e+01  4.91820e+01             
       O -9.60917e+01 -1.93407e+01  6.59976e+01             
       H -9.65398e+01 -1.99527e+01  6.52774e+01             
       H -9.62747e+01 -1.97048e+01  6.68657e+01             
       O -8.40706e+01 -2.27751e+01  6.88614e+01             
       H -8.45260e+01 -2.29996e+01  6.96642e+01             
       H -8.41112e+01 -2.18032e+01  6.87349e+01             
       O -9.30993e+01 -2.93377e+01  5.74450e+01             
       H -9.29389e+01 -2.87920e+01  6.90368e+01             
       H -9.32371e+01 -4.12232e+01  5.21741e+01             
       O -7.76346e+01 -2.50940e+01  6.78135e+01             
       H -7.71664e+01 -2.42574e+01  6.79631e+01             
       H -7.76968e+01 -2.55103e+01  6.87042e+01             
       O -8.26875e+01 -3.07933e+01  6.11837e+01             
       H -8.27184e+01 -3.16603e+01  6.07189e+01             
       H -8.36285e+01 -3.05116e+01  6.11536e+01             
       O -9.75946e+01 -2.06212e+01  6.42358e+01             
       H -9.81915e+01 -2.00827e+01  6.37022e+01             
       H -9.81009e+01 -2.13902e+01  6.46020e+01             
       O -7.77626e+01 -2.87187e+01  5.57918e+01             
       H -7.79598e+01 -2.79160e+01  5.63135e+01             
       H -7.80885e+01 -2.94162e+01  5.63753e+01             
       O -9.32359e+01 -2.32531e+01  3.56754e+01             
       H -9.41862e+01 -2.31568e+01  3.55928e+01             
       H -9.28312e+01 -2.25253e+01  3.61739e+01             
       O -8.83735e+01 -2.80357e+01  2.57627e+01             
       H -6.80775e+01 -1.40722e+01  4.68151e+01             
       H -8.91656e+01 -2.86254e+01  2.57060e+01             
       O -9.06596e+01 -2.21497e+01  5.77574e+01             
       H -9.14570e+01 -2.16861e+01  5.80433e+01             
       H -9.09411e+01 -2.30622e+01  5.76985e+01             
       O -8.30341e+01 -2.09071e+01  8.42596e+01             
       H -8.33996e+01 -2.17714e+01  8.41510e+01             
       H -8.32173e+01 -2.03927e+01  8.34843e+01             
