192                                                         
# CELL(abcABC):   12.41850    12.41850    12.41850    90.00000    90.00000    90.00000  Step:           0  Bead:       0 x_centroid{angstrom}  cell{angstrom}   
       O -7.65731e+01 -1.17908e+01  6.43764e+01             
       H -7.65030e+01 -1.12484e+01  6.36253e+01             
       H -7.57745e+01 -1.23635e+01  6.45019e+01             
       O -6.71829e+01 -8.69764e+00  6.13994e+01             
       H -6.38700e+01 -1.92823e+01  5.20203e+01             
       H -6.65223e+01 -9.36194e+00  6.16642e+01             
       O -6.74954e+01 -2.31901e+01  5.07535e+01             
       H -6.74249e+01 -1.04150e+01  5.16606e+01             
       H -6.76805e+01 -2.41107e+01  5.09410e+01             
       O -5.53284e+01 -2.25617e+01  5.32770e+01             
       H -5.60697e+01 -2.29942e+01  5.37587e+01             
       H -5.45607e+01 -2.27852e+01  5.36863e+01             
       O -5.45344e+01 -1.94827e+01  5.19886e+01             
       H -5.52762e+01 -1.91240e+01  5.14612e+01             
       H -5.49038e+01 -2.03365e+01  5.21637e+01             
       O -5.85841e+01 -1.85962e+01  6.47836e+01             
       H -5.93432e+01 -1.81553e+01  6.44597e+01             
       H -5.81474e+01 -1.89920e+01  6.40201e+01             
       O -6.64050e+01 -2.12966e+01  4.53386e+01             
       H -6.66600e+01 -2.04653e+01  4.58192e+01             
       H -5.69840e+01  2.06488e+00  5.08959e+01             
       O -5.14136e+01 -1.52397e+01  6.78935e+01             
       H -5.14084e+01 -1.43106e+01  6.81666e+01             
       H -5.05678e+01 -2.79557e+01  6.82869e+01             
       O -7.06456e+01 -8.71019e+00  4.09851e+01             
       H -7.11370e+01 -8.84608e+00  4.18342e+01             
       H -7.08684e+01 -7.79956e+00  4.07403e+01             
       O -6.52810e+01 -2.34140e+01  5.41611e+01             
       H -6.47833e+01 -2.38152e+01  5.48874e+01             
       H -6.48573e+01 -2.37088e+01  5.33591e+01             
       O -7.01356e+01 -5.20148e+00  5.86176e+01             
       H -7.02943e+01 -4.50431e+00  5.92581e+01             
       H -6.94492e+01 -4.86862e+00  5.80366e+01             
       O -6.30891e+01 -8.95115e+00  4.62180e+01             
       H -6.35288e+01 -8.52942e+00  4.70151e+01             
       H -5.70961e+01 -1.09388e+01  4.84691e+01             
       O -6.00394e+01 -2.99252e+01  4.44568e+01             
       H -5.91268e+01 -2.99942e+01  4.48695e+01             
       H -5.90400e+01 -2.47839e+01  6.10259e+01             
       O -6.96057e+01 -2.01057e+01  4.72495e+01             
       H -6.87096e+01 -2.01652e+01  4.69324e+01             
       H -6.98804e+01 -1.92150e+01  4.69162e+01             
       O -5.06992e+01 -2.40896e+01  5.85796e+01             
       H -5.11979e+01 -2.32897e+01  5.87788e+01             
       H -4.98193e+01 -2.37135e+01  5.83203e+01             
       O -6.50891e+01 -1.07601e+01  6.20284e+01             
       H -6.57702e+01 -1.09733e+01  6.27420e+01             
       H -6.53574e+01 -1.11347e+01  6.11767e+01             
       O -6.92699e+01 -1.02385e+01  4.47949e+01             
       H -6.85948e+01 -2.21175e+01  4.44542e+01             
       H -6.92647e+01 -1.01148e+01  4.57376e+01             
       O -6.72544e+01 -2.54260e+01  4.12051e+01             
       H -6.64549e+01 -2.49879e+01  4.15423e+01             
       H -6.70797e+01 -2.63395e+01  4.08244e+01             
       O -7.14036e+01 -1.28515e+01  5.26049e+01             
       H -7.07241e+01 -1.23338e+01  5.30919e+01             
       H -7.11863e+01 -1.28579e+01  5.16624e+01             
       O -6.58568e+01  8.75368e+00  4.46837e+01             
       H -4.64211e+01 -2.09192e+01  4.75105e+01             
       H -6.52665e+01  8.92477e+00  4.38999e+01             
       O -6.24487e+01 -1.76583e+01  6.05636e+01             
       H -6.22379e+01 -2.02013e+01  5.55073e+01             
       H -7.42512e+01 -1.70275e+01  6.01576e+01             
       O -5.94582e+01 -2.80211e+01  5.41414e+01             
       H -5.93341e+01 -2.86756e+01  5.48769e+01             
       H -5.96845e+01 -2.72309e+01  5.46237e+01             
       O -6.86976e+01 -1.60637e+01  5.66915e+01             
       H -6.77577e+01 -1.61134e+01  5.67294e+01             
       H -6.90291e+01 -1.63622e+01  5.58848e+01             
       O -6.09089e+01 -4.17785e+01  5.18317e+01             
       H -6.05174e+01 -4.12160e+01  5.25083e+01             
       H -6.09535e+01 -4.13022e+01  6.34459e+01             
       O -6.48997e+01 -3.63624e+00  4.88944e+01             
       H -6.57538e+01 -3.70948e+00  4.85130e+01             
       H -6.49151e+01 -2.78795e+00  4.93786e+01             
       O -5.86108e+01 -2.10165e+01  5.63995e+01             
       H -5.81048e+01 -2.18066e+01  5.66717e+01             
       H -5.80716e+01 -2.03278e+01  5.67239e+01             
       O -6.55739e+01 -2.06172e+01  6.75425e+01             
       H -6.46587e+01 -2.01721e+01  6.76023e+01             
       H -6.53096e+01 -2.14313e+01  6.70623e+01             
       O -8.15236e+01 -1.44407e+01  4.68154e+01             
       H -8.16334e+01 -1.47888e+01  4.59798e+01             
       H -8.23563e+01 -1.40771e+01  4.70256e+01             
       O -5.88366e+01 -4.24477e+00  6.10476e+01             
       H -5.88229e+01 -3.72166e+00  6.18197e+01             
       H -5.96143e+01 -4.79008e+00  6.11009e+01             
       O -6.03926e+01 -1.13810e+01  4.83960e+01             
       H -6.03162e+01 -1.04382e+01  4.81146e+01             
       H -6.07317e+01 -1.12512e+01  3.68565e+01             
       O -5.71472e+01 -1.18952e+01  2.95227e+01             
       H -5.63445e+01 -1.24324e+01  2.92138e+01             
       H -6.96095e+01 -1.21066e+01  3.04571e+01             
       O -5.21618e+01 -1.61401e+01  2.81254e+01             
       H -5.16690e+01 -1.59844e+01  2.89440e+01             
       H -5.18231e+01 -1.68771e+01  2.76353e+01             
       O -6.39183e+01 -2.08264e+01  3.62868e+01             
       H -6.42801e+01 -2.16782e+01  3.66009e+01             
       H -6.44362e+01 -2.00761e+01  4.90773e+01             
       O -4.88140e+01 -1.38896e+01  3.47525e+01             
       H -6.38656e+01 -1.22202e+01  4.48430e+01             
       H -4.97896e+01 -1.38267e+01  3.47772e+01             
       O -6.19058e+01 -2.59423e+01  5.23784e+01             
       H -6.11442e+01 -2.57961e+01  5.30074e+01             
       H -6.22853e+01 -2.67552e+01  5.27689e+01             
       O -5.29615e+01 -1.40795e+01  3.82697e+01             
       H -5.29004e+01 -1.44070e+01  3.91422e+01             
       H -5.26360e+01 -1.31777e+01  3.84537e+01             
       O -5.64108e+01 -2.59497e+01  5.06659e+01             
       H -5.69296e+01 -2.58971e+01  4.98484e+01             
       H -5.55969e+01 -2.63841e+01  5.02771e+01             
       O -6.11795e+01 -7.63388e+00  5.71104e+01             
       H -6.15638e+01 -8.31352e+00  5.77456e+01             
       H -6.03175e+01 -7.99836e+00  5.69216e+01             
       O -5.21113e+01  6.62338e+00  7.08581e+01             
       H -5.14515e+01  6.77918e+00  7.15533e+01             
       H -5.24821e+01  7.45046e+00  7.05752e+01             
       O -5.83701e+01 -2.55085e+01  6.11966e+01             
       H -6.60956e+01 -2.10115e+01  4.44702e+01             
       H -5.89209e+01 -2.62699e+01  6.13960e+01             
       O -6.32845e+01 -1.89181e+01  5.27067e+01             
       H -4.85232e+01 -1.29567e+01  3.47277e+01             
       H -6.26356e+01 -1.83931e+01  5.22995e+01             
       O -5.64003e+01 -1.07453e+01  4.78029e+01             
       H -6.61533e+01 -2.77494e+00  4.48812e+01             
       H -5.59452e+01 -9.97488e+00  4.81663e+01             
       O -6.03184e+01 -2.56154e+01  5.53803e+01             
       H -7.31266e+01 -2.49603e+01  6.71630e+01             
       H -5.42839e+01 -8.14450e+00  6.06810e+01             
       O -8.64652e+01 -1.54258e+01  5.72124e+01             
       H -8.60259e+01 -1.48239e+01  5.77948e+01             
       H -8.58664e+01 -1.62392e+01  5.72151e+01             
       O -5.97057e+01 -3.37888e+01  4.72283e+01             
       H -6.04306e+01 -3.31896e+01  4.74413e+01             
       H -6.31879e+01 -1.70776e+01  6.07686e+01             
       O -6.43834e+01 -1.25285e+01  4.40363e+01             
       H -6.52488e+01 -1.26460e+01  4.43839e+01             
       H -7.85071e+01 -1.86432e+01  2.18801e+01             
       O -7.27873e+01 -2.37928e+01  4.53664e+01             
       H -7.22499e+01 -2.29986e+01  4.55733e+01             
       H -7.26657e+01 -2.39361e+01  4.43847e+01             
       O -6.09331e+01 -2.29980e+01  3.84551e+01             
       H -6.09882e+01 -2.20854e+01  3.81276e+01             
       H -5.99641e+01 -2.29345e+01  3.85984e+01             
       O -4.54516e+01 -2.79541e+01  5.16139e+01             
       H -4.61022e+01 -1.52408e+01  5.23027e+01             
       H -4.50525e+01 -2.71369e+01  5.13126e+01             
       O -5.61451e+01 -7.42951e+00  5.48537e+01             
       H -4.28046e+01 -7.79343e+00  5.46871e+01             
       H -5.67949e+01 -7.97704e+00  5.43250e+01             
       O -5.78915e+01  2.34535e+00  5.09317e+01             
       H -6.04680e+01 -3.07377e+01  4.46552e+01             
       H -6.36058e+01  3.66452e+00  4.54362e+01             
       O -6.76745e+01 -1.65228e+01  4.80741e+01             
       H -6.78484e+01 -1.65427e+01  4.90499e+01             
       H -6.83315e+01 -1.59385e+01  4.76556e+01             
       O -6.49160e+01 -6.25334e+00  3.77607e+01             
       H -6.50556e+01 -1.77669e+01  3.75720e+01             
       H -6.57189e+01 -6.53082e+00  3.82226e+01             
       O -6.92162e+01 -1.73220e+01  5.40591e+01             
       H -6.89142e+01 -1.81873e+01  5.43895e+01             
       H -6.99394e+01 -1.75743e+01  5.34358e+01             
       O -6.14427e+01 -2.31976e+01  5.39244e+01             
       H -6.13320e+01 -2.33842e+01  5.29813e+01             
       H -6.22012e+01 -2.25819e+01  5.39314e+01             
       O -7.52487e+01 -2.06460e+01  4.24573e+01             
       H -7.53700e+01 -2.00501e+01  5.40793e+01             
       H -7.34040e+01 -3.81424e+01  4.36404e+01             
       O -5.83114e+01 -1.99808e+01  6.21016e+01             
       H -5.75110e+01 -1.96984e+01  6.15837e+01             
       H -5.81567e+01 -2.08875e+01  6.23836e+01             
       O -6.12833e+01 -2.02872e+01  4.97988e+01             
       H -6.21786e+01 -1.99933e+01  4.96282e+01             
       H -6.07401e+01 -1.94986e+01  4.97157e+01             
       O -7.96482e+01 -1.55491e+01  5.27315e+01             
       H -7.88078e+01 -1.59061e+01  5.30213e+01             
       H -8.03119e+01 -1.61379e+01  5.31533e+01             
       O -5.37639e+01 -2.37547e+01  4.68424e+01             
       H -5.36803e+01 -2.30135e+01  4.61815e+01             
       H -5.47219e+01 -2.37398e+01  4.69956e+01             
       O -7.28928e+01 -1.48007e+01  2.51403e+01             
       H -7.33819e+01 -1.48363e+01  2.42913e+01             
       H -7.33110e+01 -1.41190e+01  2.56381e+01             
       O -6.69746e+01 -1.89211e+01  2.23127e+01             
       H -4.55483e+01 -9.79543e+00  3.94762e+01             
       H -6.74598e+01 -1.80728e+01  2.24901e+01             
       O -6.83530e+01 -1.71153e+01  5.05775e+01             
       H -6.76841e+01 -1.66705e+01  5.11400e+01             
       H -6.91490e+01 -1.67495e+01  5.10243e+01             
       O -6.66829e+01 -1.34787e+01  7.03617e+01             
       H -6.76435e+01 -1.31910e+01  7.02548e+01             
       H -6.63293e+01 -1.29165e+01  7.10019e+01             
192                                                         
# CELL(abcABC):   12.41850    12.41850    12.41850    90.00000    90.00000    90.00000  Step:      200000  Bead:       0 x_centroid{angstrom}  cell{angstrom}   
       O -8.55693e+01 -1.53262e+01  6.48188e+01             
       H -8.64982e+01 -1.55733e+01  6.48527e+01             
       H -8.53909e+01 -1.48009e+01  6.40618e+01             
       O -7.85473e+01 -1.59593e+01  7.11123e+01             
       H -6.96018e+01 -2.00292e+01  5.38498e+01             
       H -7.76382e+01 -1.55933e+01  7.12923e+01             
       O -7.62521e+01 -2.55315e+01  6.24166e+01             
       H -7.59519e+01 -1.39883e+01  6.20852e+01             
       H -7.59272e+01 -2.48569e+01  6.17260e+01             
       O -6.32529e+01 -2.18360e+01  5.90391e+01             
       H -6.33224e+01 -2.08498e+01  5.90151e+01             
       H -6.40696e+01 -2.21463e+01  5.86068e+01             
       O -6.79077e+01 -2.04535e+01  5.75915e+01             
       H -6.71437e+01 -2.09896e+01  5.73649e+01             
       H -6.76301e+01 -1.97167e+01  5.81197e+01             
       O -6.54471e+01 -2.17411e+01  6.95620e+01             
       H -6.53955e+01 -2.26631e+01  6.92469e+01             
       H -6.51211e+01 -2.11491e+01  6.88597e+01             
       O -7.33067e+01 -2.28606e+01  5.78466e+01             
       H -7.28251e+01 -2.20823e+01  5.73960e+01             
       H -7.00127e+01  2.38173e+00  5.69032e+01             
       O -6.13319e+01 -1.67208e+01  7.40426e+01             
       H -6.13613e+01 -1.73180e+01  7.32809e+01             
       H -6.06777e+01 -2.95201e+01  7.47555e+01             
       O -8.85672e+01 -1.44727e+01  4.62032e+01             
       H -8.78284e+01 -1.42315e+01  4.67364e+01             
       H -8.82689e+01 -1.46391e+01  4.52859e+01             
       O -7.91221e+01 -2.65633e+01  6.62480e+01             
       H -7.90448e+01 -2.56752e+01  6.66362e+01             
       H -8.01017e+01 -2.66129e+01  6.62701e+01             
       O -8.05159e+01 -6.05647e+00  5.95762e+01             
       H -7.96842e+01 -6.08936e+00  6.00197e+01             
       H -8.04701e+01 -5.13966e+00  5.93509e+01             
       O -7.49788e+01 -1.28248e+01  5.26645e+01             
       H -7.50137e+01 -1.28680e+01  5.16999e+01             
       H -7.04009e+01 -1.81655e+01  5.21811e+01             
       O -7.20472e+01 -3.76179e+01  4.63604e+01             
       H -7.24901e+01 -3.67627e+01  4.60719e+01             
       H -7.25309e+01 -2.87261e+01  6.61264e+01             
       O -8.20262e+01 -2.64652e+01  5.38118e+01             
       H -8.22203e+01 -2.74053e+01  5.39047e+01             
       H -8.25278e+01 -2.60889e+01  5.31312e+01             
       O -5.85262e+01 -3.40287e+01  6.26652e+01             
       H -5.76649e+01 -3.40196e+01  6.31014e+01             
       H -5.84205e+01 -3.46804e+01  6.19045e+01             
       O -7.55866e+01 -1.47735e+01  6.83395e+01             
       H -7.53753e+01 -1.38253e+01  6.81799e+01             
       H -7.58326e+01 -1.50730e+01  6.73971e+01             
       O -8.11280e+01 -1.25975e+01  4.38051e+01             
       H -8.14701e+01 -2.56746e+01  4.31281e+01             
       H -8.15446e+01 -1.17051e+01  4.36192e+01             
       O -7.85658e+01 -2.68691e+01  5.12052e+01             
       H -7.86025e+01 -2.63609e+01  5.20518e+01             
       H -7.78249e+01 -2.64265e+01  5.08232e+01             
       O -8.19004e+01 -1.62936e+01  5.63818e+01             
       H -8.21233e+01 -1.72393e+01  5.61857e+01             
       H -8.09869e+01 -1.61735e+01  5.64945e+01             
       O -7.25105e+01  3.69408e+00  5.36084e+01             
       H -6.09150e+01 -2.62059e+01  4.72575e+01             
       H -7.31176e+01  4.38966e+00  5.31968e+01             
       O -7.34040e+01 -1.80750e+01  5.92046e+01             
       H -7.54666e+01 -2.26585e+01  6.22106e+01             
       H -8.67566e+01 -1.85550e+01  5.91431e+01             
       O -7.33023e+01 -2.92435e+01  5.66562e+01             
       H -7.30280e+01 -2.97370e+01  5.74367e+01             
       H -7.42186e+01 -2.89439e+01  5.67317e+01             
       O -7.65328e+01 -1.94363e+01  6.48335e+01             
       H -7.64584e+01 -2.02311e+01  6.42753e+01             
       H -7.72533e+01 -1.88904e+01  6.45802e+01             
       O -7.09809e+01 -4.46000e+01  5.91569e+01             
       H -7.00950e+01 -4.45531e+01  5.95193e+01             
       H -7.10024e+01 -4.54781e+01  7.12099e+01             
       O -7.38212e+01 -6.57575e+00  5.28626e+01             
       H -7.48059e+01 -6.56959e+00  5.25702e+01             
       H -7.36097e+01 -5.90090e+00  5.35203e+01             
       O -7.15811e+01 -2.69873e+01  5.65572e+01             
       H -7.07323e+01 -2.74051e+01  5.62769e+01             
       H -7.22950e+01 -2.76018e+01  5.63655e+01             
       O -7.53583e+01 -2.21000e+01  7.62354e+01             
       H -7.57696e+01 -2.22751e+01  7.71236e+01             
       H -7.44566e+01 -2.22814e+01  7.64085e+01             
       O -9.51140e+01 -1.21558e+01  4.82777e+01             
       H -9.44370e+01 -1.23140e+01  4.75992e+01             
       H -9.59350e+01 -1.24155e+01  4.78090e+01             
       O -6.58132e+01 -8.33547e+00  6.26477e+01             
       H -6.54577e+01 -9.27665e+00  6.26506e+01             
       H -6.66698e+01 -8.43965e+00  6.30280e+01             
       O -7.21429e+01 -1.23932e+01  5.53029e+01             
       H -7.17326e+01 -1.31579e+01  5.57140e+01             
       H -7.15000e+01 -1.16976e+01  4.29240e+01             
       O -6.97553e+01 -9.65926e+00  3.35873e+01             
       H -6.89677e+01 -9.13261e+00  3.35916e+01             
       H -8.21798e+01 -1.03546e+01  3.42416e+01             
       O -6.60721e+01 -2.36382e+01  3.57878e+01             
       H -6.51362e+01 -2.35902e+01  3.61017e+01             
       H -6.65781e+01 -2.39919e+01  3.65331e+01             
       O -7.47333e+01 -2.44226e+01  4.32660e+01             
       H -7.37802e+01 -2.45095e+01  4.30003e+01             
       H -7.45971e+01 -2.40478e+01  5.65670e+01             
       O -6.58899e+01 -1.71791e+01  3.99952e+01             
       H -7.70763e+01 -1.17392e+01  5.12931e+01             
       H -6.64356e+01 -1.72892e+01  4.07902e+01             
       O -6.84294e+01 -3.38188e+01  5.12265e+01             
       H -6.89119e+01 -3.35069e+01  5.20539e+01             
       H -6.83805e+01 -3.48036e+01  5.13456e+01             
       O -6.35166e+01 -1.57157e+01  4.03622e+01             
       H -6.37051e+01 -1.47964e+01  4.03942e+01             
       H -6.43881e+01 -1.61796e+01  4.03290e+01             
       O -6.52997e+01 -3.23227e+01  5.49431e+01             
       H -6.61698e+01 -3.20664e+01  5.45904e+01             
       H -6.46653e+01 -3.23512e+01  5.42012e+01             
       O -7.25842e+01 -1.30510e+01  6.32956e+01             
       H -7.29368e+01 -1.30770e+01  6.23972e+01             
       H -7.16466e+01 -1.31877e+01  6.32430e+01             
       O -5.73569e+01  5.90113e+00  8.07188e+01             
       H -5.80524e+01  5.72689e+00  8.13969e+01             
       H -5.66188e+01  5.52011e+00  8.12371e+01             
       O -7.22126e+01 -2.94574e+01  6.66558e+01             
       H -7.42085e+01 -2.25563e+01  5.79956e+01             
       H -7.25685e+01 -2.93618e+01  6.75391e+01             
       O -6.98203e+01 -2.09211e+01  5.37613e+01             
       H -6.62763e+01 -1.64604e+01  3.95088e+01             
       H -7.07668e+01 -2.10374e+01  5.34520e+01             
       O -6.98394e+01 -1.80298e+01  5.29966e+01             
       H -7.25440e+01 -9.45404e+00  5.29412e+01             
       H -7.05862e+01 -1.79270e+01  5.36906e+01             
       O -7.02302e+01 -2.84549e+01  6.22924e+01             
       H -8.27968e+01 -2.93571e+01  7.51251e+01             
       H -6.65920e+01 -1.58880e+01  7.19989e+01             
       O -9.46760e+01 -2.59527e+01  6.33234e+01             
       H -9.47204e+01 -2.69211e+01  6.31152e+01             
       H -9.43059e+01 -2.55556e+01  6.25545e+01             
       O -7.39655e+01 -3.87739e+01  4.80006e+01             
       H -7.37947e+01 -3.96830e+01  4.83616e+01             
       H -7.26850e+01 -1.87571e+01  5.92217e+01             
       O -7.77398e+01 -1.14795e+01  5.19036e+01             
       H -7.71939e+01 -1.12024e+01  5.27400e+01             
       H -9.16731e+01 -2.39567e+01  2.69439e+01             
       O -8.05316e+01 -2.53792e+01  5.90506e+01             
       H -8.07121e+01 -2.52774e+01  5.81034e+01             
       H -7.96949e+01 -2.49591e+01  5.91855e+01             
       O -7.59259e+01 -1.89411e+01  4.64342e+01             
       H -7.66527e+01 -1.87727e+01  4.71379e+01             
       H -7.62540e+01 -1.84614e+01  4.56391e+01             
       O -5.47266e+01 -2.82954e+01  4.88646e+01             
       H -5.56799e+01 -1.58272e+01  4.92114e+01             
       H -5.41007e+01 -2.80215e+01  4.95414e+01             
       O -6.43230e+01 -1.08369e+01  6.66387e+01             
       H -5.10253e+01 -1.12296e+01  6.69588e+01             
       H -6.50396e+01 -1.12037e+01  6.71957e+01             
       O -6.98828e+01  2.05069e+00  5.59830e+01             
       H -7.17586e+01 -3.81612e+01  4.55562e+01             
       H -7.40720e+01 -6.04263e-01  5.27806e+01             
       O -7.90276e+01 -1.58281e+01  5.61437e+01             
       H -7.86635e+01 -1.50388e+01  5.56626e+01             
       H -7.88478e+01 -1.58060e+01  5.71313e+01             
       O -7.64251e+01 -5.26638e+00  4.40244e+01             
       H -7.67935e+01 -1.85288e+01  4.37847e+01             
       H -7.71036e+01 -4.56336e+00  4.40953e+01             
       O -8.52569e+01 -2.28527e+01  6.39924e+01             
       H -8.46899e+01 -2.23230e+01  6.33430e+01             
       H -8.52207e+01 -2.38146e+01  6.37130e+01             
       O -7.63912e+01 -2.83935e+01  6.15882e+01             
       H -7.61689e+01 -2.79886e+01  6.07661e+01             
       H -7.55848e+01 -2.89138e+01  6.18768e+01             
       O -8.79494e+01 -2.31821e+01  4.89730e+01             
       H -8.78123e+01 -2.25477e+01  6.05775e+01             
       H -8.27500e+01 -4.11005e+01  4.89640e+01             
       O -6.54122e+01 -2.43273e+01  7.03058e+01             
       H -6.47864e+01 -2.50340e+01  7.04406e+01             
       H -6.57625e+01 -2.40874e+01  7.11804e+01             
       O -7.23739e+01 -2.07584e+01  5.63584e+01             
       H -7.22857e+01 -2.10261e+01  5.54152e+01             
       H -7.31617e+01 -2.01508e+01  5.62346e+01             
       O -9.03852e+01 -1.86722e+01  6.07438e+01             
       H -9.04384e+01 -1.78185e+01  6.11169e+01             
       H -9.02662e+01 -1.92333e+01  6.15379e+01             
       O -6.68885e+01 -2.39933e+01  5.46778e+01             
       H -6.73903e+01 -2.38517e+01  5.38264e+01             
       H -6.76132e+01 -2.42062e+01  5.53360e+01             
       O -8.40540e+01 -1.83579e+01  2.62312e+01             
       H -8.46997e+01 -1.86382e+01  2.69367e+01             
       H -8.37926e+01 -1.91662e+01  2.57888e+01             
       O -8.02954e+01 -2.39462e+01  2.69724e+01             
       H -5.71127e+01 -9.69908e+00  4.29966e+01             
       H -8.05845e+01 -2.48738e+01  2.69510e+01             
       O -8.20432e+01 -1.56343e+01  5.95077e+01             
       H -8.24847e+01 -1.56604e+01  5.86684e+01             
       H -8.14813e+01 -1.48485e+01  5.94372e+01             
       O -7.98172e+01 -1.77563e+01  7.92157e+01             
       H -7.96905e+01 -1.70488e+01  7.98757e+01             
       H -8.06469e+01 -1.77579e+01  7.87635e+01             
