192                                                         
# CELL(abcABC):   12.41850    12.41850    12.41850    90.00000    90.00000    90.00000  Step:           0  Bead:       0 x_centroid{angstrom}  cell{angstrom}   
       O -7.86604e+01 -1.32500e+01  6.61744e+01             
       H -7.90955e+01 -1.40567e+01  6.58782e+01             
       H -7.79030e+01 -1.31086e+01  6.55717e+01             
       O -7.44382e+01 -1.23442e+01  6.11240e+01             
       H -6.50634e+01 -1.91595e+01  5.79582e+01             
       H -7.40106e+01 -1.19769e+01  6.03397e+01             
       O -7.58530e+01 -2.38304e+01  5.51293e+01             
       H -7.53289e+01 -1.21418e+01  5.46928e+01             
       H -7.65258e+01 -2.43315e+01  5.55826e+01             
       O -6.04333e+01 -2.03619e+01  5.24591e+01             
       H -6.09724e+01 -1.96213e+01  5.21698e+01             
       H -5.98170e+01 -2.00409e+01  5.31445e+01             
       O -5.84490e+01 -2.14120e+01  5.06631e+01             
       H -5.89215e+01 -2.14554e+01  4.98485e+01             
       H -5.91356e+01 -2.10598e+01  5.12429e+01             
       O -6.09578e+01 -1.85280e+01  6.78568e+01             
       H -6.11304e+01 -1.94813e+01  6.77431e+01             
       H -6.18350e+01 -1.81118e+01  6.78778e+01             
       O -7.37706e+01 -2.27011e+01  3.88013e+01             
       H -7.46227e+01 -2.29989e+01  3.91583e+01             
       H -6.42466e+01  1.85810e+00  5.35528e+01             
       O -5.49794e+01 -1.29064e+01  7.08373e+01             
       H -5.52306e+01 -1.20605e+01  7.04046e+01             
       H -5.46827e+01 -2.50078e+01  7.17083e+01             
       O -7.64707e+01 -7.11596e+00  4.10487e+01             
       H -7.65000e+01 -7.28260e+00  4.19894e+01             
       H -7.62055e+01 -7.93716e+00  4.06486e+01             
       O -6.77129e+01 -2.30590e+01  5.65703e+01             
       H -6.83472e+01 -2.23911e+01  5.69105e+01             
       H -6.79949e+01 -2.31188e+01  5.56724e+01             
       O -7.08264e+01 -6.92233e+00  6.01791e+01             
       H -7.15357e+01 -6.81277e+00  6.07784e+01             
       H -7.12646e+01 -7.14720e+00  5.93420e+01             
       O -6.77944e+01 -1.09244e+01  4.81360e+01             
       H -6.83493e+01 -1.11845e+01  4.88398e+01             
       H -5.82675e+01 -1.40421e+01  4.67941e+01             
       O -6.24398e+01 -3.09596e+01  4.71587e+01             
       H -6.16362e+01 -3.11125e+01  4.66255e+01             
       H -6.14078e+01 -2.56951e+01  6.26715e+01             
       O -7.28621e+01 -1.96977e+01  4.57316e+01             
       H -7.22212e+01 -1.93709e+01  4.50714e+01             
       H -7.30883e+01 -2.06153e+01  4.54196e+01             
       O -5.28056e+01 -2.68173e+01  6.20733e+01             
       H -5.25813e+01 -2.61341e+01  6.14119e+01             
       H -5.19573e+01 -2.72632e+01  6.21496e+01             
       O -6.96439e+01 -1.30854e+01  6.21830e+01             
       H -6.99671e+01 -1.30276e+01  6.12758e+01             
       H -6.89791e+01 -1.38365e+01  6.21897e+01             
       O -7.28798e+01 -1.51011e+01  4.34851e+01             
       H -7.37767e+01 -2.71099e+01  4.33625e+01             
       H -7.22654e+01 -1.43758e+01  4.35462e+01             
       O -7.10361e+01 -2.49909e+01  4.37506e+01             
       H -7.10006e+01 -2.42607e+01  4.43792e+01             
       H -7.01074e+01 -2.52383e+01  4.35421e+01             
       O -7.47577e+01 -1.36657e+01  5.36156e+01             
       H -7.38718e+01 -1.33814e+01  5.35773e+01             
       H -7.50952e+01 -1.32712e+01  5.28084e+01             
       O -6.48631e+01  8.51606e+00  5.20327e+01             
       H -5.18673e+01 -2.43385e+01  4.70492e+01             
       H -6.56129e+01  9.00963e+00  5.23405e+01             
       O -6.91268e+01 -1.85771e+01  6.35675e+01             
       H -6.30884e+01 -2.82814e+01  6.00790e+01             
       H -8.07078e+01 -1.88998e+01  6.38206e+01             
       O -6.54056e+01 -3.09692e+01  5.61257e+01             
       H -6.48118e+01 -3.02829e+01  5.57989e+01             
       H -6.62115e+01 -3.07331e+01  5.57091e+01             
       O -6.79484e+01 -1.62426e+01  5.79226e+01             
       H -6.71607e+01 -1.61495e+01  5.85477e+01             
       H -6.86943e+01 -1.64252e+01  5.85207e+01             
       O -6.16582e+01 -4.27387e+01  5.15320e+01             
       H -6.12804e+01 -4.22162e+01  5.22193e+01             
       H -6.26044e+01 -4.27927e+01  6.41112e+01             
       O -7.10722e+01 -7.62436e+00  5.45664e+01             
       H -7.07231e+01 -6.72285e+00  5.44843e+01             
       H -7.03421e+01 -8.17524e+00  5.43170e+01             
       O -6.31483e+01 -2.08083e+01  5.59087e+01             
       H -6.37916e+01 -2.08666e+01  5.66498e+01             
       H -6.31641e+01 -2.17152e+01  5.55870e+01             
       O -6.63964e+01 -1.86247e+01  7.34241e+01             
       H -6.60662e+01 -1.86263e+01  7.24918e+01             
       H -6.67395e+01 -1.77284e+01  7.34681e+01             
       O -8.40195e+01 -1.52878e+01  4.61916e+01             
       H -8.48125e+01 -1.52648e+01  4.56105e+01             
       H -8.43543e+01 -1.58275e+01  4.69120e+01             
       O -6.07528e+01 -6.21270e+00  6.16308e+01             
       H -6.10165e+01 -6.02336e+00  6.25593e+01             
       H -6.16441e+01 -6.14496e+00  6.11613e+01             
       O -6.44038e+01 -1.28064e+01  5.17936e+01             
       H -6.44822e+01 -1.18709e+01  5.15790e+01             
       H -6.49313e+01 -1.32300e+01  3.86557e+01             
       O -5.97683e+01 -1.22275e+01  2.88215e+01             
       H -5.99463e+01 -1.13655e+01  2.85820e+01             
       H -7.17209e+01 -1.22804e+01  2.96876e+01             
       O -5.34910e+01 -1.58255e+01  3.45914e+01             
       H -5.35821e+01 -1.51406e+01  3.53142e+01             
       H -5.25490e+01 -1.60094e+01  3.42646e+01             
       O -6.89632e+01 -2.32229e+01  3.87569e+01             
       H -6.92617e+01 -2.40955e+01  3.84518e+01             
       H -6.96165e+01 -2.25553e+01  5.10159e+01             
       O -5.55073e+01 -1.50457e+01  3.76573e+01             
       H -6.60378e+01 -1.00256e+01  4.48317e+01             
       H -5.58370e+01 -1.57285e+01  3.70899e+01             
       O -6.54246e+01 -2.56860e+01  5.62335e+01             
       H -6.58548e+01 -2.58338e+01  5.54051e+01             
       H -6.60911e+01 -2.57675e+01  5.69127e+01             
       O -5.58958e+01 -1.86110e+01  4.38752e+01             
       H -5.56270e+01 -1.78404e+01  4.44079e+01             
       H -5.66411e+01 -1.82350e+01  4.33212e+01             
       O -5.89256e+01 -2.63581e+01  5.18645e+01             
       H -5.91052e+01 -2.58099e+01  5.26577e+01             
       H -5.83703e+01 -2.59068e+01  5.12404e+01             
       O -6.38907e+01 -5.97633e+00  6.22923e+01             
       H -6.47593e+01 -6.09102e+00  6.18483e+01             
       H -6.34413e+01 -6.81118e+00  6.22070e+01             
       O -5.60697e+01  4.34230e+00  7.28466e+01             
       H -5.69503e+01  4.73832e+00  7.31105e+01             
       H -5.54174e+01  5.00669e+00  7.30816e+01             
       O -6.12119e+01 -2.65651e+01  6.29780e+01             
       H -7.35706e+01 -2.18978e+01  3.92676e+01             
       H -6.03848e+01 -2.65707e+01  6.34981e+01             
       O -6.47197e+01 -1.94968e+01  5.88000e+01             
       H -5.46206e+01 -1.47179e+01  3.74438e+01             
       H -6.49108e+01 -2.04542e+01  5.86490e+01             
       O -5.76874e+01 -1.32922e+01  4.71507e+01             
       H -6.52176e+01 -4.67596e+00  5.16332e+01             
       H -5.67851e+01 -1.35044e+01  4.68420e+01             
       O -6.31401e+01 -2.68623e+01  5.68088e+01             
       H -7.64150e+01 -2.65253e+01  6.88976e+01             
       H -6.29104e+01 -1.19610e+01  6.11737e+01             
       O -8.78183e+01 -1.57772e+01  6.19661e+01             
       H -8.80079e+01 -1.65921e+01  6.23988e+01             
       H -8.71083e+01 -1.53158e+01  6.24261e+01             
       O -6.47710e+01 -3.67234e+01  4.78900e+01             
       H -6.51060e+01 -3.58072e+01  4.79656e+01             
       H -6.96954e+01 -1.93802e+01  6.35121e+01             
       O -6.53244e+01 -9.71244e+00  4.54255e+01             
       H -6.46935e+01 -1.03888e+01  4.54513e+01             
       H -8.50368e+01 -2.28745e+01  2.09449e+01             
       O -7.56792e+01 -2.38814e+01  4.56354e+01             
       H -7.48361e+01 -2.33840e+01  4.56463e+01             
       H -7.56003e+01 -2.46483e+01  4.50296e+01             
       O -6.80614e+01 -2.37822e+01  4.15437e+01             
       H -6.86347e+01 -2.36702e+01  4.07866e+01             
       H -6.73898e+01 -2.44984e+01  4.14279e+01             
       O -4.77747e+01 -2.88062e+01  5.32839e+01             
       H -4.82346e+01 -1.59588e+01  5.39717e+01             
       H -4.73394e+01 -2.80631e+01  5.28674e+01             
       O -5.80320e+01 -4.75903e+00  5.48323e+01             
       H -4.65181e+01 -4.71105e+00  5.51461e+01             
       H -5.80336e+01 -4.69319e+00  5.38811e+01             
       O -6.40135e+01  2.27120e+00  5.27315e+01             
       H -6.32631e+01 -3.13666e+01  4.68757e+01             
       H -6.78722e+01  2.46274e+00  4.80339e+01             
       O -6.89451e+01 -1.70021e+01  4.85953e+01             
       H -6.89009e+01 -1.75681e+01  4.93872e+01             
       H -6.99239e+01 -1.68022e+01  4.85773e+01             
       O -6.89835e+01 -8.46515e+00  4.53719e+01             
       H -6.87517e+01 -2.01302e+01  4.48473e+01             
       H -6.85339e+01 -8.23876e+00  4.62307e+01             
       O -7.59556e+01 -1.67670e+01  5.49509e+01             
       H -7.57686e+01 -1.59484e+01  5.54101e+01             
       H -7.60703e+01 -1.65996e+01  5.40387e+01             
       O -6.84954e+01 -2.09715e+01  5.40119e+01             
       H -6.81786e+01 -2.18891e+01  5.39783e+01             
       H -6.81897e+01 -2.07075e+01  5.48778e+01             
       O -7.55070e+01 -2.83543e+01  4.66873e+01             
       H -7.52906e+01 -2.92974e+01  5.90697e+01             
       H -7.55873e+01 -3.96278e+01  4.52936e+01             
       O -6.07010e+01 -2.16542e+01  6.10110e+01             
       H -6.11828e+01 -2.20388e+01  6.18163e+01             
       H -6.07920e+01 -2.07325e+01  6.10778e+01             
       O -6.63379e+01 -2.22251e+01  5.13490e+01             
       H -6.66236e+01 -2.12953e+01  5.13488e+01             
       H -6.71428e+01 -2.27696e+01  5.11579e+01             
       O -8.13662e+01 -1.47481e+01  5.57402e+01             
       H -8.09546e+01 -1.50441e+01  5.65404e+01             
       H -8.22433e+01 -1.52226e+01  5.57375e+01             
       O -5.83210e+01 -2.33879e+01  4.59080e+01             
       H -5.76213e+01 -2.27102e+01  4.59044e+01             
       H -5.80510e+01 -2.41448e+01  4.64332e+01             
       O -7.91767e+01 -1.93623e+01  2.74931e+01             
       H -7.96574e+01 -1.97798e+01  2.82740e+01             
       H -7.83160e+01 -1.91713e+01  2.78715e+01             
       O -7.34640e+01 -2.25186e+01  2.11681e+01             
       H -5.24805e+01 -1.00278e+01  3.98507e+01             
       H -7.33560e+01 -2.22742e+01  2.21380e+01             
       O -7.17300e+01 -1.59522e+01  4.90557e+01             
       H -7.22545e+01 -1.67638e+01  4.92252e+01             
       H -7.22635e+01 -1.52021e+01  4.92282e+01             
       O -6.77709e+01 -1.53881e+01  7.79649e+01             
       H -6.81976e+01 -1.52417e+01  7.70707e+01             
       H -6.84724e+01 -1.52474e+01  7.86410e+01             
192                                                         
# CELL(abcABC):   12.41850    12.41850    12.41850    90.00000    90.00000    90.00000  Step:      200000  Bead:       0 x_centroid{angstrom}  cell{angstrom}   
       O -8.99911e+01 -1.90769e+01  7.66581e+01             
       H -8.97574e+01 -1.95596e+01  7.58534e+01             
       H -8.92698e+01 -1.84729e+01  7.67288e+01             
       O -8.71793e+01 -1.58955e+01  6.86859e+01             
       H -7.49785e+01 -1.97501e+01  6.69401e+01             
       H -8.75267e+01 -1.63622e+01  6.95124e+01             
       O -9.37344e+01 -2.85142e+01  6.01887e+01             
       H -9.47190e+01 -1.58197e+01  6.01225e+01             
       H -9.33661e+01 -2.78306e+01  6.08127e+01             
       O -7.32095e+01 -2.10550e+01  6.08506e+01             
       H -7.28371e+01 -2.02438e+01  6.12404e+01             
       H -7.37737e+01 -2.13076e+01  6.16150e+01             
       O -7.54660e+01 -2.57768e+01  5.36412e+01             
       H -7.56173e+01 -2.51336e+01  5.43806e+01             
       H -7.47898e+01 -2.53441e+01  5.30514e+01             
       O -7.22093e+01 -2.07483e+01  7.75824e+01             
       H -7.31342e+01 -2.05878e+01  7.76792e+01             
       H -7.17551e+01 -2.02995e+01  7.83556e+01             
       O -8.77092e+01 -2.24470e+01  5.01171e+01             
       H -8.74437e+01 -2.33696e+01  5.01807e+01             
       H -7.61523e+01  3.10914e+00  6.11142e+01             
       O -6.55431e+01 -1.16489e+01  7.40688e+01             
       H -6.49038e+01 -1.19496e+01  7.34562e+01             
       H -6.64405e+01 -2.40340e+01  7.36024e+01             
       O -8.79838e+01 -9.85256e+00  4.61141e+01             
       H -8.87381e+01 -9.70459e+00  4.55225e+01             
       H -8.82025e+01 -9.23016e+00  4.68359e+01             
       O -8.04499e+01 -2.40797e+01  6.05871e+01             
       H -8.07122e+01 -2.31585e+01  6.09380e+01             
       H -8.02368e+01 -2.38777e+01  5.96901e+01             
       O -8.60596e+01 -1.01728e+01  6.73159e+01             
       H -8.64009e+01 -1.07024e+01  6.80327e+01             
       H -8.51112e+01 -1.03147e+01  6.72737e+01             
       O -8.02042e+01 -1.30616e+01  5.41960e+01             
       H -7.94017e+01 -1.33686e+01  5.36588e+01             
       H -6.88756e+01 -1.66300e+01  5.82172e+01             
       O -7.59794e+01 -3.46027e+01  5.29051e+01             
       H -7.60156e+01 -3.37161e+01  5.33503e+01             
       H -7.24856e+01 -3.05614e+01  7.07262e+01             
       O -8.64127e+01 -2.51208e+01  5.09286e+01             
       H -8.55150e+01 -2.48757e+01  5.11937e+01             
       H -8.63884e+01 -2.60781e+01  5.08552e+01             
       O -7.23616e+01 -2.91276e+01  6.79544e+01             
       H -7.32635e+01 -2.88136e+01  6.77891e+01             
       H -7.18698e+01 -2.87092e+01  6.72031e+01             
       O -8.82198e+01 -1.25747e+01  5.98701e+01             
       H -8.72633e+01 -1.27614e+01  6.01784e+01             
       H -8.81665e+01 -1.16270e+01  5.95652e+01             
       O -8.56531e+01 -1.37324e+01  4.46956e+01             
       H -8.61078e+01 -2.67128e+01  4.39725e+01             
       H -8.62160e+01 -1.36658e+01  4.54902e+01             
       O -8.06766e+01 -2.69161e+01  5.00111e+01             
       H -8.10012e+01 -2.76265e+01  5.06668e+01             
       H -8.13648e+01 -2.62993e+01  5.00010e+01             
       O -8.83861e+01 -1.71200e+01  5.85859e+01             
       H -8.91993e+01 -1.76096e+01  5.82932e+01             
       H -8.86020e+01 -1.65692e+01  5.93316e+01             
       O -7.97863e+01  6.34554e+00  6.05758e+01             
       H -6.66081e+01 -3.21352e+01  5.50494e+01             
       H -8.05317e+01  6.94062e+00  6.06750e+01             
       O -8.31354e+01 -2.72230e+01  6.97037e+01             
       H -7.98126e+01 -3.34112e+01  7.27385e+01             
       H -9.63110e+01 -2.67276e+01  6.93752e+01             
       O -8.31789e+01 -3.57012e+01  6.42384e+01             
       H -8.37569e+01 -3.49989e+01  6.44752e+01             
       H -8.32671e+01 -3.63463e+01  6.49646e+01             
       O -8.07853e+01 -2.56709e+01  6.91742e+01             
       H -8.05828e+01 -2.57097e+01  6.82258e+01             
       H -8.16498e+01 -2.60860e+01  6.92350e+01             
       O -7.27279e+01 -4.24491e+01  6.20102e+01             
       H -7.21488e+01 -4.19645e+01  6.14195e+01             
       H -7.22185e+01 -4.30527e+01  7.49734e+01             
       O -8.54047e+01 -1.31579e+01  6.01518e+01             
       H -8.53173e+01 -1.22582e+01  5.96316e+01             
       H -8.50986e+01 -1.29417e+01  6.10537e+01             
       O -7.79965e+01 -2.68096e+01  6.54609e+01             
       H -7.81193e+01 -2.69664e+01  6.44981e+01             
       H -7.71217e+01 -2.63487e+01  6.55918e+01             
       O -7.82762e+01 -2.21745e+01  7.61189e+01             
       H -7.75095e+01 -2.19682e+01  7.66793e+01             
       H -7.80143e+01 -2.26528e+01  7.53152e+01             
       O -1.00168e+02 -1.88833e+01  4.98477e+01             
       H -9.92859e+01 -1.84142e+01  4.96184e+01             
       H -1.00326e+02 -1.95576e+01  4.91682e+01             
       O -7.56302e+01 -1.18185e+01  6.82901e+01             
       H -7.63829e+01 -1.11264e+01  6.83051e+01             
       H -7.58165e+01 -1.23735e+01  6.90773e+01             
       O -8.15641e+01 -2.04239e+01  5.89984e+01             
       H -8.14171e+01 -1.94825e+01  5.88848e+01             
       H -8.18200e+01 -2.07145e+01  4.56615e+01             
       O -7.16475e+01 -1.56291e+01  3.52920e+01             
       H -7.18019e+01 -1.61078e+01  3.44867e+01             
       H -8.42928e+01 -1.46920e+01  3.51096e+01             
       O -6.72897e+01 -2.30917e+01  4.53474e+01             
       H -6.75575e+01 -2.39402e+01  4.48948e+01             
       H -6.80886e+01 -2.25659e+01  4.50587e+01             
       O -8.80265e+01 -2.87439e+01  4.04354e+01             
       H -8.79919e+01 -2.79589e+01  4.09515e+01             
       H -8.77268e+01 -2.94483e+01  5.35164e+01             
       O -7.30345e+01 -2.31125e+01  4.65418e+01             
       H -7.98932e+01 -2.17760e+01  5.42162e+01             
       H -7.38334e+01 -2.28344e+01  4.60346e+01             
       O -8.17659e+01 -2.93355e+01  6.72191e+01             
       H -8.16061e+01 -2.95318e+01  6.82147e+01             
       H -8.08283e+01 -2.94870e+01  6.69231e+01             
       O -7.10912e+01 -1.94782e+01  5.06333e+01             
       H -7.14597e+01 -2.02007e+01  5.11967e+01             
       H -7.05893e+01 -1.99086e+01  4.99072e+01             
       O -7.05854e+01 -3.76059e+01  6.20024e+01             
       H -7.04988e+01 -3.68699e+01  6.26306e+01             
       H -7.01681e+01 -3.73703e+01  6.12004e+01             
       O -7.72195e+01 -9.38975e+00  6.87935e+01             
       H -7.72771e+01 -8.51284e+00  6.83500e+01             
       H -7.81467e+01 -9.57342e+00  6.88033e+01             
       O -6.98902e+01  3.50059e+00  8.14039e+01             
       H -7.03593e+01  2.63445e+00  8.14291e+01             
       H -7.03156e+01  4.24783e+00  8.09255e+01             
       O -7.18532e+01 -2.99014e+01  7.04769e+01             
       H -8.78981e+01 -2.21720e+01  5.10129e+01             
       H -7.21876e+01 -2.96165e+01  6.95681e+01             
       O -7.55565e+01 -1.97885e+01  6.62023e+01             
       H -7.28034e+01 -2.23775e+01  4.71880e+01             
       H -7.64784e+01 -1.94517e+01  6.64441e+01             
       O -6.91812e+01 -1.73175e+01  5.76651e+01             
       H -7.89222e+01 -5.71114e+00  6.08360e+01             
       H -7.00785e+01 -1.76121e+01  5.79440e+01             
       O -7.79422e+01 -2.70182e+01  6.25938e+01             
       H -9.00467e+01 -2.61200e+01  7.47306e+01             
       H -7.54886e+01 -1.53678e+01  6.83904e+01             
       O -9.85133e+01 -1.97747e+01  6.82606e+01             
       H -9.88367e+01 -1.95890e+01  6.91778e+01             
       H -9.84029e+01 -2.07398e+01  6.81836e+01             
       O -7.82417e+01 -4.40303e+01  5.52696e+01             
       H -7.84077e+01 -4.30861e+01  5.50354e+01             
       H -8.31927e+01 -2.80551e+01  6.91753e+01             
       O -7.99524e+01 -2.10941e+01  5.49315e+01             
       H -8.08046e+01 -2.11929e+01  5.54381e+01             
       H -1.02022e+02 -2.66260e+01  3.27253e+01             
       O -8.63087e+01 -2.78613e+01  5.10807e+01             
       H -8.58058e+01 -2.83740e+01  5.03874e+01             
       H -8.71053e+01 -2.83013e+01  5.13865e+01             
       O -7.90923e+01 -2.75521e+01  4.48469e+01             
       H -7.92332e+01 -2.81263e+01  4.55890e+01             
       H -7.97932e+01 -2.67562e+01  4.48970e+01             
       O -5.74092e+01 -2.88971e+01  6.40951e+01             
       H -5.74847e+01 -1.70208e+01  6.33004e+01             
       H -5.67819e+01 -2.94275e+01  6.46742e+01             
       O -7.09769e+01 -6.87887e+00  6.72664e+01             
       H -5.93072e+01 -6.32124e+00  6.76828e+01             
       H -7.03000e+01 -6.18020e+00  6.70993e+01             
       O -7.65353e+01  3.89223e+00  6.06221e+01             
       H -7.58787e+01 -3.53076e+01  5.36123e+01             
       H -8.03506e+01  2.95698e-01  5.39170e+01             
       O -7.88759e+01 -2.88339e+01  5.48044e+01             
       H -7.88867e+01 -2.83175e+01  5.56510e+01             
       H -7.85307e+01 -2.82218e+01  5.42007e+01             
       O -8.36959e+01 -1.12647e+01  5.66015e+01             
       H -8.42247e+01 -2.38450e+01  5.73823e+01             
       H -8.39230e+01 -1.19566e+01  5.59092e+01             
       O -8.65257e+01 -1.90244e+01  5.85493e+01             
       H -8.72254e+01 -1.83121e+01  5.87173e+01             
       H -8.66055e+01 -1.97058e+01  5.91489e+01             
       O -8.03546e+01 -2.03697e+01  6.30335e+01             
       H -7.95458e+01 -2.08413e+01  6.32095e+01             
       H -8.02044e+01 -1.96676e+01  6.24093e+01             
       O -9.13735e+01 -3.38293e+01  6.01219e+01             
       H -9.15850e+01 -3.42628e+01  7.17063e+01             
       H -9.13293e+01 -3.94330e+01  5.00260e+01             
       O -7.72722e+01 -2.92603e+01  7.34456e+01             
       H -7.71963e+01 -2.85150e+01  7.40369e+01             
       H -7.66879e+01 -2.99478e+01  7.38550e+01             
       O -8.41430e+01 -2.75162e+01  5.29718e+01             
       H -8.49346e+01 -2.78299e+01  5.25484e+01             
       H -8.33477e+01 -2.79702e+01  5.25529e+01             
       O -9.28145e+01 -1.82068e+01  6.50201e+01             
       H -9.18503e+01 -1.82104e+01  6.49580e+01             
       H -9.30233e+01 -1.91122e+01  6.47090e+01             
       O -7.10844e+01 -2.51690e+01  5.44499e+01             
       H -7.01262e+01 -2.54742e+01  5.44603e+01             
       H -7.16407e+01 -2.58862e+01  5.41173e+01             
       O -9.26890e+01 -2.29890e+01  2.80131e+01             
       H -9.35506e+01 -2.27270e+01  2.76762e+01             
       H -9.20916e+01 -2.26992e+01  2.73056e+01             
       O -8.87004e+01 -2.63263e+01  3.28279e+01             
       H -6.50689e+01 -8.73008e+00  4.81383e+01             
       H -8.86130e+01 -2.59676e+01  3.37476e+01             
       O -9.04782e+01 -1.87397e+01  5.80893e+01             
       H -9.12554e+01 -1.86032e+01  5.86210e+01             
       H -9.07164e+01 -1.90584e+01  5.71942e+01             
       O -8.19540e+01 -2.19144e+01  8.60741e+01             
       H -8.21375e+01 -2.12667e+01  8.53875e+01             
       H -8.14557e+01 -2.14805e+01  8.68206e+01             
