192                                                         
# CELL(abcABC):   12.41850    12.41850    12.41850    90.00000    90.00000    90.00000  Step:           0  Bead:       0 x_centroid{angstrom}  cell{angstrom}   
       O -8.01568e+01 -1.17593e+01  6.71113e+01             
       H -7.99313e+01 -1.24623e+01  6.64886e+01             
       H -7.93568e+01 -1.15960e+01  6.76207e+01             
       O -7.63702e+01 -1.32153e+01  6.19988e+01             
       H -6.70118e+01 -2.02115e+01  6.07452e+01             
       H -7.65252e+01 -1.33421e+01  6.10698e+01             
       O -7.77923e+01 -2.31305e+01  5.59008e+01             
       H -7.71659e+01 -1.09641e+01  5.52628e+01             
       H -7.75405e+01 -2.37302e+01  5.66347e+01             
       O -6.23624e+01 -2.09120e+01  5.38802e+01             
       H -6.22903e+01 -2.13343e+01  5.47790e+01             
       H -6.32817e+01 -2.07123e+01  5.36186e+01             
       O -6.13590e+01 -2.26334e+01  5.19537e+01             
       H -6.20732e+01 -2.24418e+01  5.11944e+01             
       H -6.16343e+01 -2.20209e+01  5.26018e+01             
       O -6.29270e+01 -1.81533e+01  6.66827e+01             
       H -6.35344e+01 -1.74344e+01  6.65474e+01             
       H -6.32954e+01 -1.87713e+01  6.73461e+01             
       O -7.78696e+01 -2.35850e+01  3.90055e+01             
       H -7.86455e+01 -2.31971e+01  3.94743e+01             
       H -6.75591e+01  2.16692e+00  5.37301e+01             
       O -5.66606e+01 -1.51669e+01  7.27081e+01             
       H -5.60379e+01 -1.44443e+01  7.30970e+01             
       H -5.75247e+01 -2.71691e+01  7.27280e+01             
       O -7.75724e+01 -8.02869e+00  4.14044e+01             
       H -7.80359e+01 -7.91125e+00  4.22536e+01             
       H -7.80719e+01 -8.73602e+00  4.09363e+01             
       O -6.82320e+01 -2.36674e+01  5.79944e+01             
       H -6.90628e+01 -2.31636e+01  5.80137e+01             
       H -6.84653e+01 -2.43862e+01  5.73960e+01             
       O -7.20981e+01 -7.84490e+00  6.08932e+01             
       H -7.20941e+01 -8.02475e+00  6.18438e+01             
       H -7.29618e+01 -7.51345e+00  6.06822e+01             
       O -6.85456e+01 -1.03175e+01  4.91916e+01             
       H -6.89093e+01 -1.01477e+01  5.00874e+01             
       H -6.01477e+01 -1.43206e+01  4.87104e+01             
       O -6.44678e+01 -3.17711e+01  4.89762e+01             
       H -6.38048e+01 -3.18430e+01  4.82484e+01             
       H -6.23428e+01 -2.67299e+01  6.26656e+01             
       O -7.44943e+01 -1.97736e+01  4.67111e+01             
       H -7.50828e+01 -1.91493e+01  4.62415e+01             
       H -7.46594e+01 -2.06298e+01  4.63521e+01             
       O -5.40893e+01 -2.77572e+01  6.32832e+01             
       H -5.41681e+01 -2.71325e+01  6.25273e+01             
       H -5.32979e+01 -2.82355e+01  6.30622e+01             
       O -7.04641e+01 -1.28640e+01  6.30931e+01             
       H -7.04887e+01 -1.31305e+01  6.21323e+01             
       H -7.00767e+01 -1.37158e+01  6.34349e+01             
       O -7.62870e+01 -1.80250e+01  4.57707e+01             
       H -7.66681e+01 -3.00110e+01  4.49745e+01             
       H -7.66720e+01 -1.74030e+01  4.64265e+01             
       O -7.24286e+01 -2.49840e+01  4.40846e+01             
       H -7.24750e+01 -2.46489e+01  4.50356e+01             
       H -7.17983e+01 -2.43721e+01  4.37098e+01             
       O -7.62696e+01 -1.16421e+01  5.37562e+01             
       H -7.55322e+01 -1.10533e+01  5.35119e+01             
       H -7.58630e+01 -1.21797e+01  5.43628e+01             
       O -6.66445e+01  8.37926e+00  5.42060e+01             
       H -5.50231e+01 -2.48979e+01  4.92126e+01             
       H -6.64570e+01  7.73474e+00  5.34523e+01             
       O -7.16471e+01 -2.09492e+01  6.38102e+01             
       H -6.46892e+01 -2.85825e+01  6.09372e+01             
       H -8.48273e+01 -2.15043e+01  6.37419e+01             
       O -6.70237e+01 -3.08818e+01  5.77531e+01             
       H -6.62063e+01 -3.05879e+01  5.73406e+01             
       H -6.77533e+01 -3.04238e+01  5.72631e+01             
       O -6.97238e+01 -1.78952e+01  5.69252e+01             
       H -6.99565e+01 -1.80454e+01  5.78265e+01             
       H -7.02172e+01 -1.70884e+01  5.67136e+01             
       O -6.00071e+01 -4.41588e+01  5.33406e+01             
       H -5.92718e+01 -4.42318e+01  5.39571e+01             
       H -6.07022e+01 -4.47175e+01  6.61714e+01             
       O -7.42672e+01 -9.60011e+00  5.68760e+01             
       H -7.33678e+01 -9.45818e+00  5.70729e+01             
       H -7.42383e+01 -1.05815e+01  5.70182e+01             
       O -6.67829e+01 -2.08607e+01  5.60817e+01             
       H -6.68960e+01 -2.04421e+01  5.69318e+01             
       H -6.64944e+01 -2.17711e+01  5.62098e+01             
       O -6.81050e+01 -1.90662e+01  7.53827e+01             
       H -6.85039e+01 -1.88433e+01  7.44872e+01             
       H -6.86469e+01 -1.85923e+01  7.60962e+01             
       O -8.57913e+01 -1.64638e+01  4.65666e+01             
       H -8.57550e+01 -1.66755e+01  4.56071e+01             
       H -8.65484e+01 -1.69216e+01  4.69525e+01             
       O -6.31213e+01 -6.47904e+00  6.38009e+01             
       H -6.29856e+01 -6.15810e+00  6.47077e+01             
       H -6.40845e+01 -6.50451e+00  6.37595e+01             
       O -6.61229e+01 -1.35211e+01  5.34354e+01             
       H -6.62577e+01 -1.37230e+01  5.25059e+01             
       H -6.63213e+01 -1.43475e+01  4.14250e+01             
       O -6.16908e+01 -1.37600e+01  2.97118e+01             
       H -6.11221e+01 -1.33863e+01  2.90263e+01             
       H -7.36610e+01 -1.34723e+01  3.05106e+01             
       O -5.56229e+01 -1.86470e+01  3.54934e+01             
       H -5.65135e+01 -1.87537e+01  3.51836e+01             
       H -5.51473e+01 -1.81855e+01  3.47502e+01             
       O -7.21258e+01 -2.46504e+01  4.04577e+01             
       H -7.17030e+01 -2.48556e+01  3.96469e+01             
       H -7.25871e+01 -2.38387e+01  5.26027e+01             
       O -5.69301e+01 -1.52085e+01  3.88505e+01             
       H -6.68457e+01 -1.00627e+01  4.60368e+01             
       H -5.73700e+01 -1.59648e+01  3.84778e+01             
       O -6.84366e+01 -2.65496e+01  5.76789e+01             
       H -6.85410e+01 -2.73364e+01  5.71395e+01             
       H -6.87471e+01 -2.68816e+01  5.85475e+01             
       O -5.97214e+01 -2.00660e+01  4.45962e+01             
       H -5.96979e+01 -1.94116e+01  4.53041e+01             
       H -5.88562e+01 -2.01769e+01  4.41840e+01             
       O -6.01560e+01 -2.80157e+01  5.26192e+01             
       H -5.99785e+01 -2.77673e+01  5.35095e+01             
       H -5.94007e+01 -2.84722e+01  5.22120e+01             
       O -6.57227e+01 -5.73643e+00  6.47813e+01             
       H -6.63506e+01 -5.82305e+00  6.40712e+01             
       H -6.56300e+01 -6.59494e+00  6.52317e+01             
       O -5.84809e+01  6.99811e+00  7.18897e+01             
       H -5.89387e+01  6.29270e+00  7.23645e+01             
       H -5.91439e+01  7.72534e+00  7.17614e+01             
       O -6.14282e+01 -2.69936e+01  6.25819e+01             
       H -7.74267e+01 -2.40324e+01  3.96957e+01             
       H -6.10793e+01 -2.70542e+01  6.34817e+01             
       O -6.65262e+01 -2.09993e+01  6.10312e+01             
       H -5.60065e+01 -1.54362e+01  3.87365e+01             
       H -6.63345e+01 -2.14340e+01  6.01690e+01             
       O -5.98480e+01 -1.41289e+01  4.78541e+01             
       H -6.75439e+01 -3.74216e+00  5.40066e+01             
       H -6.02448e+01 -1.48614e+01  4.72878e+01             
       O -6.57627e+01 -2.67129e+01  5.88106e+01             
       H -7.89483e+01 -2.65968e+01  7.07147e+01             
       H -6.46921e+01 -1.27018e+01  6.23621e+01             
       O -8.87632e+01 -1.61858e+01  6.30214e+01             
       H -8.86906e+01 -1.71753e+01  6.30724e+01             
       H -8.86630e+01 -1.58801e+01  6.39128e+01             
       O -6.71022e+01 -3.81635e+01  4.88527e+01             
       H -6.64903e+01 -3.78818e+01  4.81682e+01             
       H -7.18594e+01 -2.02542e+01  6.44831e+01             
       O -6.59904e+01 -9.66989e+00  4.63143e+01             
       H -6.53685e+01 -1.04078e+01  4.63811e+01             
       H -8.66131e+01 -2.33299e+01  2.23510e+01             
       O -7.65940e+01 -2.46288e+01  4.53724e+01             
       H -7.61078e+01 -2.41812e+01  4.61188e+01             
       H -7.68948e+01 -2.54796e+01  4.56897e+01             
       O -7.04827e+01 -2.34499e+01  4.25020e+01             
       H -7.06526e+01 -2.37619e+01  4.16083e+01             
       H -6.95529e+01 -2.36472e+01  4.26567e+01             
       O -5.10494e+01 -2.77672e+01  5.31753e+01             
       H -5.02552e+01 -1.49973e+01  5.35401e+01             
       H -5.17675e+01 -2.73381e+01  5.36940e+01             
       O -6.07086e+01 -4.81391e+00  5.61433e+01             
       H -4.89585e+01 -4.91254e+00  5.54047e+01             
       H -6.01377e+01 -5.57338e+00  5.61992e+01             
       O -6.71865e+01  2.59743e+00  5.29421e+01             
       H -6.50476e+01 -3.24592e+01  4.87910e+01             
       H -6.79020e+01  2.79892e+00  4.89880e+01             
       O -7.11708e+01 -1.73796e+01  5.07112e+01             
       H -7.10066e+01 -1.83370e+01  5.08338e+01             
       H -7.20840e+01 -1.73576e+01  5.04267e+01             
       O -7.06233e+01 -9.98815e+00  4.73264e+01             
       H -7.10031e+01 -2.15979e+01  4.76417e+01             
       H -6.98503e+01 -1.00980e+01  4.79337e+01             
       O -7.75896e+01 -1.64225e+01  5.63798e+01             
       H -7.77618e+01 -1.56146e+01  5.68604e+01             
       H -7.79846e+01 -1.63605e+01  5.54579e+01             
       O -6.99802e+01 -2.07294e+01  5.56279e+01             
       H -7.02646e+01 -2.15050e+01  5.50636e+01             
       H -6.90122e+01 -2.06375e+01  5.56384e+01             
       O -7.75304e+01 -2.90735e+01  4.77765e+01             
       H -7.76724e+01 -3.00116e+01  6.05600e+01             
       H -7.80989e+01 -4.01214e+01  4.65869e+01             
       O -6.34497e+01 -2.18296e+01  6.28905e+01             
       H -6.41605e+01 -2.23400e+01  6.32574e+01             
       H -6.35857e+01 -2.08887e+01  6.28694e+01             
       O -6.94554e+01 -2.23865e+01  5.17121e+01             
       H -7.02288e+01 -2.17923e+01  5.17229e+01             
       H -6.98059e+01 -2.33301e+01  5.16042e+01             
       O -8.36607e+01 -1.53242e+01  5.57214e+01             
       H -8.40396e+01 -1.44479e+01  5.59950e+01             
       H -8.44258e+01 -1.59127e+01  5.57317e+01             
       O -6.03228e+01 -2.41234e+01  4.67112e+01             
       H -5.95035e+01 -2.35806e+01  4.68057e+01             
       H -6.01448e+01 -2.49710e+01  4.71233e+01             
       O -8.21880e+01 -1.84309e+01  2.88483e+01             
       H -8.20598e+01 -1.74926e+01  2.89259e+01             
       H -8.16247e+01 -1.88287e+01  2.95169e+01             
       O -7.51463e+01 -2.33557e+01  2.25693e+01             
       H -5.56028e+01 -9.58693e+00  3.99821e+01             
       H -7.52835e+01 -2.29847e+01  2.34695e+01             
       O -7.37303e+01 -1.76473e+01  4.95609e+01             
       H -7.44053e+01 -1.80719e+01  5.01212e+01             
       H -7.38873e+01 -1.67319e+01  4.98263e+01             
       O -6.92926e+01 -1.57786e+01  7.89797e+01             
       H -6.94976e+01 -1.54086e+01  7.80976e+01             
       H -7.01192e+01 -1.56448e+01  7.94476e+01             
192                                                         
# CELL(abcABC):   12.41850    12.41850    12.41850    90.00000    90.00000    90.00000  Step:      200000  Bead:       0 x_centroid{angstrom}  cell{angstrom}   
       O -8.84187e+01 -1.43968e+01  6.93251e+01             
       H -8.83237e+01 -1.51275e+01  6.99967e+01             
       H -8.82728e+01 -1.36694e+01  6.99826e+01             
       O -8.97339e+01 -1.60499e+01  6.36532e+01             
       H -8.00237e+01 -2.38399e+01  6.30981e+01             
       H -8.99607e+01 -1.54615e+01  6.44272e+01             
       O -9.17741e+01 -3.16604e+01  6.28242e+01             
       H -9.13704e+01 -1.93721e+01  6.18975e+01             
       H -9.26736e+01 -3.19336e+01  6.27644e+01             
       O -7.41307e+01 -1.98451e+01  6.14256e+01             
       H -7.38994e+01 -1.98725e+01  6.24197e+01             
       H -7.43974e+01 -1.88989e+01  6.12938e+01             
       O -6.96996e+01 -2.36556e+01  5.71146e+01             
       H -6.94933e+01 -2.31272e+01  5.78743e+01             
       H -6.90945e+01 -2.31899e+01  5.63952e+01             
       O -7.18135e+01 -2.09051e+01  7.26808e+01             
       H -7.19627e+01 -2.10297e+01  7.16956e+01             
       H -7.25858e+01 -2.04975e+01  7.30210e+01             
       O -9.04803e+01 -2.70942e+01  4.10513e+01             
       H -9.01112e+01 -2.75962e+01  4.18097e+01             
       H -7.45765e+01  1.00485e-01  6.25173e+01             
       O -6.85595e+01 -1.63628e+01  7.74195e+01             
       H -6.76281e+01 -1.62989e+01  7.72144e+01             
       H -6.90166e+01 -2.82461e+01  7.66930e+01             
       O -8.49770e+01 -9.15212e+00  4.52230e+01             
       H -8.41884e+01 -8.88405e+00  4.47965e+01             
       H -8.55875e+01 -8.45562e+00  4.48896e+01             
       O -8.09489e+01 -2.24855e+01  6.73025e+01             
       H -8.00467e+01 -2.27682e+01  6.74006e+01             
       H -8.13383e+01 -2.29489e+01  6.65461e+01             
       O -8.01646e+01 -1.18624e+01  7.21569e+01             
       H -7.94528e+01 -1.25240e+01  7.20299e+01             
       H -8.09491e+01 -1.24961e+01  7.23113e+01             
       O -7.83444e+01 -1.32243e+01  5.68997e+01             
       H -7.90564e+01 -1.36031e+01  5.63541e+01             
       H -7.15497e+01 -1.53268e+01  5.11258e+01             
       O -7.52215e+01 -3.70244e+01  5.86087e+01             
       H -7.42649e+01 -3.67938e+01  5.86939e+01             
       H -7.30499e+01 -2.65671e+01  6.92789e+01             
       O -8.40966e+01 -1.90974e+01  5.51729e+01             
       H -8.32762e+01 -1.85958e+01  5.50337e+01             
       H -8.38923e+01 -2.00577e+01  5.52168e+01             
       O -6.51610e+01 -3.68352e+01  6.51885e+01             
       H -6.58845e+01 -3.67919e+01  6.45240e+01             
       H -6.43062e+01 -3.68192e+01  6.47961e+01             
       O -8.25478e+01 -1.67780e+01  6.74633e+01             
       H -8.24233e+01 -1.67167e+01  6.64866e+01             
       H -8.16909e+01 -1.71195e+01  6.78034e+01             
       O -8.89584e+01 -1.84491e+01  5.28130e+01             
       H -8.80693e+01 -3.11463e+01  5.27329e+01             
       H -8.94387e+01 -1.92650e+01  5.30579e+01             
       O -8.22540e+01 -2.62860e+01  4.45206e+01             
       H -8.22049e+01 -2.53400e+01  4.46120e+01             
       H -8.18069e+01 -2.64457e+01  4.36964e+01             
       O -8.94026e+01 -1.30654e+01  6.10737e+01             
       H -8.99687e+01 -1.36460e+01  6.05202e+01             
       H -8.87320e+01 -1.36701e+01  6.14423e+01             
       O -7.74107e+01  8.07541e+00  5.50821e+01             
       H -6.82254e+01 -2.77684e+01  5.47196e+01             
       H -7.73834e+01  7.44188e+00  5.42962e+01             
       O -7.99820e+01 -2.25674e+01  7.42979e+01             
       H -7.48659e+01 -2.66237e+01  6.39450e+01             
       H -9.22286e+01 -2.28525e+01  7.33547e+01             
       O -7.68596e+01 -3.53526e+01  6.19369e+01             
       H -7.76692e+01 -3.49329e+01  6.20739e+01             
       H -7.69642e+01 -3.62964e+01  6.16881e+01             
       O -8.26682e+01 -1.78402e+01  5.91361e+01             
       H -8.24934e+01 -1.76799e+01  6.00615e+01             
       H -8.20945e+01 -1.72690e+01  5.86598e+01             
       O -6.59703e+01 -4.44218e+01  6.02231e+01             
       H -6.52564e+01 -4.50712e+01  6.01453e+01             
       H -6.65942e+01 -4.46963e+01  7.19753e+01             
       O -8.42048e+01 -1.09724e+01  6.17379e+01             
       H -8.50909e+01 -1.14567e+01  6.16750e+01             
       H -8.43094e+01 -1.01836e+01  6.11277e+01             
       O -7.13877e+01 -2.18597e+01  6.39276e+01             
       H -7.13606e+01 -2.25740e+01  6.32579e+01             
       H -7.11182e+01 -2.22778e+01  6.47728e+01             
       O -7.43589e+01 -2.29683e+01  7.93137e+01             
       H -7.49334e+01 -2.27611e+01  7.85495e+01             
       H -7.47066e+01 -2.25078e+01  8.00746e+01             
       O -9.76625e+01 -1.80299e+01  5.25437e+01             
       H -9.74471e+01 -1.78827e+01  5.34813e+01             
       H -9.80354e+01 -1.89338e+01  5.25602e+01             
       O -7.14236e+01 -9.58740e+00  6.69085e+01             
       H -7.23232e+01 -1.01560e+01  6.69718e+01             
       H -7.09713e+01 -1.00257e+01  6.76195e+01             
       O -7.83827e+01 -1.08639e+01  5.51268e+01             
       H -7.79869e+01 -1.15279e+01  5.56820e+01             
       H -7.79231e+01 -1.10290e+01  4.18628e+01             
       O -7.37957e+01 -1.70360e+01  3.64166e+01             
       H -7.35772e+01 -1.68563e+01  3.55203e+01             
       H -8.54545e+01 -1.68864e+01  3.69354e+01             
       O -6.35081e+01 -2.20835e+01  3.94876e+01             
       H -6.42916e+01 -2.15294e+01  3.96869e+01             
       H -6.36886e+01 -2.25597e+01  3.86494e+01             
       O -8.54923e+01 -2.66552e+01  4.79565e+01             
       H -8.45544e+01 -2.65106e+01  4.80453e+01             
       H -8.55416e+01 -2.65656e+01  5.93720e+01             
       O -6.56566e+01 -2.06252e+01  4.38592e+01             
       H -7.88207e+01 -1.61363e+01  5.01817e+01             
       H -6.51557e+01 -2.14193e+01  4.36569e+01             
       O -8.13515e+01 -2.68828e+01  6.26861e+01             
       H -8.06768e+01 -2.75409e+01  6.23431e+01             
       H -8.08602e+01 -2.61906e+01  6.30450e+01             
       O -6.36586e+01 -2.13357e+01  4.74218e+01             
       H -6.38256e+01 -2.21026e+01  4.80250e+01             
       H -6.28124e+01 -2.09983e+01  4.78107e+01             
       O -6.97179e+01 -3.26230e+01  5.74251e+01             
       H -7.01135e+01 -3.17737e+01  5.77178e+01             
       H -6.90287e+01 -3.29221e+01  5.81227e+01             
       O -7.24980e+01 -1.15018e+01  7.10823e+01             
       H -7.25839e+01 -1.07482e+01  7.05449e+01             
       H -7.16396e+01 -1.18764e+01  7.10723e+01             
       O -6.93812e+01  1.40858e-01  7.80380e+01             
       H -7.01633e+01 -2.13721e-01  7.76320e+01             
       H -6.90231e+01 -5.13481e-01  7.86966e+01             
       O -7.23489e+01 -2.68202e+01  6.98883e+01             
       H -9.01206e+01 -2.61522e+01  4.11670e+01             
       H -7.14697e+01 -2.66916e+01  6.94365e+01             
       O -7.98624e+01 -2.45376e+01  6.37582e+01             
       H -6.63036e+01 -2.05216e+01  4.31520e+01             
       H -8.06198e+01 -2.46406e+01  6.44693e+01             
       O -7.17453e+01 -1.62040e+01  5.07786e+01             
       H -7.68693e+01 -4.93434e+00  5.56011e+01             
       H -7.20941e+01 -1.68112e+01  5.15012e+01             
       O -8.21392e+01 -3.27075e+01  6.24365e+01             
       H -9.51717e+01 -3.30752e+01  7.55690e+01             
       H -7.69932e+01 -1.69441e+01  6.39962e+01             
       O -1.01268e+02 -1.63985e+01  7.11213e+01             
       H -1.00915e+02 -1.68494e+01  7.18869e+01             
       H -1.01272e+02 -1.71550e+01  7.04469e+01             
       O -8.04434e+01 -3.93121e+01  5.50334e+01             
       H -7.95956e+01 -3.92583e+01  5.44618e+01             
       H -8.06590e+01 -2.18710e+01  7.42857e+01             
       O -7.94719e+01 -1.62143e+01  4.93866e+01             
       H -7.97226e+01 -1.71222e+01  4.92383e+01             
       H -9.92703e+01 -2.47990e+01  2.99957e+01             
       O -9.07518e+01 -3.27665e+01  5.26804e+01             
       H -9.13931e+01 -3.28451e+01  5.33958e+01             
       H -9.11354e+01 -3.21427e+01  5.20426e+01             
       O -7.98731e+01 -2.98956e+01  4.37965e+01             
       H -8.01222e+01 -2.95521e+01  4.46611e+01             
       H -7.91178e+01 -2.93822e+01  4.35571e+01             
       O -6.12722e+01 -3.12606e+01  5.68990e+01             
       H -6.05999e+01 -1.89313e+01  5.62382e+01             
       H -6.09996e+01 -3.05061e+01  5.74694e+01             
       O -6.95763e+01 -5.00889e+00  6.17735e+01             
       H -5.75924e+01 -4.26902e+00  6.22827e+01             
       H -6.97341e+01 -5.80941e+00  6.23156e+01             
       O -7.41450e+01  3.16873e-01  6.16897e+01             
       H -7.56848e+01 -3.71813e+01  5.94488e+01             
       H -7.76178e+01 -1.45220e+00  5.70782e+01             
       O -7.57337e+01 -2.23150e+01  5.70221e+01             
       H -7.54735e+01 -2.31860e+01  5.73889e+01             
       H -7.59045e+01 -2.17507e+01  5.78394e+01             
       O -7.96791e+01 -8.94669e+00  5.85113e+01             
       H -7.91220e+01 -2.09467e+01  5.77708e+01             
       H -7.95777e+01 -9.91354e+00  5.83968e+01             
       O -8.62524e+01 -2.05053e+01  6.40160e+01             
       H -8.69563e+01 -2.11560e+01  6.42188e+01             
       H -8.53878e+01 -2.10071e+01  6.39477e+01             
       O -7.52837e+01 -2.73851e+01  6.23714e+01             
       H -7.47736e+01 -2.81011e+01  6.20021e+01             
       H -7.59877e+01 -2.78327e+01  6.28377e+01             
       O -8.68301e+01 -2.58899e+01  5.19732e+01             
       H -8.69085e+01 -2.59680e+01  6.53787e+01             
       H -9.51196e+01 -4.51419e+01  4.92456e+01             
       O -7.01827e+01 -2.54354e+01  6.03383e+01             
       H -6.97934e+01 -2.60133e+01  6.10354e+01             
       H -7.06263e+01 -2.46472e+01  6.08328e+01             
       O -8.09582e+01 -2.83803e+01  5.82740e+01             
       H -8.02376e+01 -2.80019e+01  5.87725e+01             
       H -8.15671e+01 -2.76449e+01  5.79290e+01             
       O -9.76197e+01 -1.68046e+01  5.87283e+01             
       H -9.67645e+01 -1.71890e+01  5.89576e+01             
       H -9.74076e+01 -1.59539e+01  5.82761e+01             
       O -7.15396e+01 -2.54562e+01  5.16169e+01             
       H -7.16000e+01 -2.51685e+01  5.06851e+01             
       H -7.24350e+01 -2.54797e+01  5.19191e+01             
       O -9.10568e+01 -2.74072e+01  3.47846e+01             
       H -9.11035e+01 -2.80292e+01  3.55224e+01             
       H -9.04714e+01 -2.77822e+01  3.41427e+01             
       O -8.68429e+01 -2.57713e+01  2.97705e+01             
       H -6.15742e+01 -1.29817e+01  4.88239e+01             
       H -8.75683e+01 -2.61479e+01  3.02983e+01             
       O -8.03165e+01 -1.97040e+01  5.48490e+01             
       H -8.08946e+01 -2.03189e+01  5.52044e+01             
       H -8.02733e+01 -1.89148e+01  5.53851e+01             
       O -7.66575e+01 -1.83837e+01  8.17641e+01             
       H -7.56746e+01 -1.85911e+01  8.16545e+01             
       H -7.72925e+01 -1.91143e+01  8.15795e+01             
