192                                                         
# CELL(abcABC):   12.41850    12.41850    12.41850    90.00000    90.00000    90.00000  Step:           0  Bead:       0 x_centroid{angstrom}  cell{angstrom}   
       O -7.70661e+01 -1.29426e+01  6.34086e+01             
       H -7.79302e+01 -1.25086e+01  6.35993e+01             
       H -7.65778e+01 -1.23219e+01  6.28558e+01             
       O -7.00770e+01 -9.43022e+00  6.23492e+01             
       H -6.25022e+01 -1.84268e+01  5.48018e+01             
       H -6.95748e+01 -9.05250e+00  6.30155e+01             
       O -6.92266e+01 -2.29222e+01  5.25252e+01             
       H -6.89588e+01 -1.02062e+01  5.34002e+01             
       H -6.96028e+01 -2.38227e+01  5.26996e+01             
       O -5.56058e+01 -2.22921e+01  5.48185e+01             
       H -5.57868e+01 -2.22545e+01  5.57899e+01             
       H -5.47899e+01 -2.28110e+01  5.48232e+01             
       O -5.59001e+01 -2.00540e+01  5.13384e+01             
       H -5.64080e+01 -1.95333e+01  5.07606e+01             
       H -5.63860e+01 -1.98869e+01  5.22161e+01             
       O -5.91681e+01 -1.91913e+01  6.31639e+01             
       H -5.98624e+01 -1.86495e+01  6.27119e+01             
       H -5.95149e+01 -1.97959e+01  6.38167e+01             
       O -6.86351e+01 -2.18526e+01  4.51118e+01             
       H -6.90681e+01 -2.09386e+01  4.51808e+01             
       H -5.89493e+01  1.70464e+00  5.05813e+01             
       O -5.06939e+01 -1.42766e+01  6.80384e+01             
       H -5.12969e+01 -1.36481e+01  6.76461e+01             
       H -5.03463e+01 -2.63267e+01  6.88538e+01             
       O -7.26836e+01 -8.66000e+00  4.01494e+01             
       H -7.24073e+01 -8.27089e+00  4.10062e+01             
       H -7.34048e+01 -8.03367e+00  3.98826e+01             
       O -6.50778e+01 -2.49591e+01  5.39056e+01             
       H -6.45860e+01 -2.43360e+01  5.45059e+01             
       H -6.45960e+01 -2.51644e+01  5.30144e+01             
       O -7.13193e+01 -5.02264e+00  5.92309e+01             
       H -7.18539e+01 -5.54447e+00  5.98382e+01             
       H -7.09855e+01 -4.34715e+00  5.97657e+01             
       O -6.50273e+01 -8.82154e+00  4.80971e+01             
       H -6.54423e+01 -8.65123e+00  4.89661e+01             
       H -5.68255e+01 -1.22010e+01  4.85852e+01             
       O -6.06761e+01 -2.85786e+01  4.49732e+01             
       H -5.99701e+01 -2.86772e+01  4.56280e+01             
       H -5.88762e+01 -2.51461e+01  6.01248e+01             
       O -6.98711e+01 -1.92540e+01  4.47674e+01             
       H -6.90907e+01 -1.87166e+01  4.50029e+01             
       H -7.04452e+01 -1.90644e+01  4.54915e+01             
       O -5.03170e+01 -2.21409e+01  5.93817e+01             
       H -5.10010e+01 -2.16582e+01  5.98989e+01             
       H -4.94283e+01 -2.19895e+01  5.96945e+01             
       O -6.69487e+01 -1.15474e+01  6.34234e+01             
       H -6.76194e+01 -1.13171e+01  6.41542e+01             
       H -6.75695e+01 -1.19202e+01  6.27387e+01             
       O -6.96952e+01 -1.21451e+01  4.42299e+01             
       H -6.92849e+01 -2.38892e+01  4.47841e+01             
       H -7.06260e+01 -1.20508e+01  4.42716e+01             
       O -6.72101e+01 -2.67628e+01  4.09439e+01             
       H -6.65595e+01 -2.61015e+01  4.12745e+01             
       H -6.70096e+01 -2.76284e+01  4.14197e+01             
       O -7.24525e+01 -1.30819e+01  5.24405e+01             
       H -7.15495e+01 -1.32343e+01  5.27349e+01             
       H -7.25208e+01 -1.22828e+01  5.19272e+01             
       O -6.57511e+01  8.51076e+00  4.63092e+01             
       H -4.74927e+01 -2.06791e+01  4.64874e+01             
       H -6.55422e+01  8.71997e+00  4.53878e+01             
       O -6.62285e+01 -1.78742e+01  6.16954e+01             
       H -6.27097e+01 -2.21711e+01  5.77187e+01             
       H -7.78709e+01 -1.73581e+01  6.13979e+01             
       O -6.00302e+01 -2.74281e+01  5.50132e+01             
       H -6.03526e+01 -2.79373e+01  5.57617e+01             
       H -6.04681e+01 -2.76603e+01  5.41742e+01             
       O -6.85095e+01 -1.70611e+01  5.85176e+01             
       H -6.75439e+01 -1.69018e+01  5.84884e+01             
       H -6.89568e+01 -1.63172e+01  5.80814e+01             
       O -6.22911e+01 -4.35334e+01  5.27120e+01             
       H -6.25990e+01 -4.26735e+01  5.23783e+01             
       H -6.26638e+01 -4.42043e+01  6.46260e+01             
       O -6.57327e+01 -5.26009e+00  5.19791e+01             
       H -6.64556e+01 -4.85264e+00  5.24757e+01             
       H -6.51216e+01 -4.49425e+00  5.16933e+01             
       O -5.90870e+01 -1.97678e+01  5.48321e+01             
       H -5.81127e+01 -1.99061e+01  5.46349e+01             
       H -5.91088e+01 -1.99834e+01  5.57811e+01             
       O -6.60464e+01 -1.97994e+01  6.88307e+01             
       H -6.57544e+01 -1.94827e+01  6.79976e+01             
       H -6.63458e+01 -2.06816e+01  6.86499e+01             
       O -8.20810e+01 -1.46284e+01  4.53754e+01             
       H -8.21190e+01 -1.38732e+01  4.47638e+01             
       H -8.21740e+01 -1.42436e+01  4.62296e+01             
       O -6.10375e+01 -5.29624e+00  6.14338e+01             
       H -6.06957e+01 -4.38010e+00  6.14978e+01             
       H -6.19143e+01 -5.16143e+00  6.09248e+01             
       O -6.00435e+01 -1.16760e+01  4.66094e+01             
       H -6.03161e+01 -1.09117e+01  4.60778e+01             
       H -6.06864e+01 -1.23890e+01  3.39568e+01             
       O -5.76531e+01 -1.36415e+01  2.89002e+01             
       H -5.66600e+01 -1.36783e+01  2.88672e+01             
       H -7.03555e+01 -1.39754e+01  2.97978e+01             
       O -5.26825e+01 -1.63909e+01  3.12288e+01             
       H -5.19320e+01 -1.57367e+01  3.10873e+01             
       H -5.22871e+01 -1.72424e+01  3.08905e+01             
       O -6.58951e+01 -2.16789e+01  3.82108e+01             
       H -6.61498e+01 -2.26359e+01  3.83358e+01             
       H -6.66422e+01 -2.11683e+01  5.09839e+01             
       O -5.10370e+01 -1.39550e+01  3.52468e+01             
       H -6.51088e+01 -1.03648e+01  4.45106e+01             
       H -5.19872e+01 -1.39955e+01  3.53646e+01             
       O -6.19264e+01 -2.75121e+01  5.27875e+01             
       H -6.12821e+01 -2.67307e+01  5.27067e+01             
       H -6.24036e+01 -2.72711e+01  5.35826e+01             
       O -5.17534e+01 -1.54924e+01  3.85903e+01             
       H -5.08664e+01 -1.55047e+01  3.90123e+01             
       H -5.20022e+01 -1.45593e+01  3.85068e+01             
       O -5.47662e+01 -2.74505e+01  5.07287e+01             
       H -5.48115e+01 -2.72285e+01  5.16931e+01             
       H -5.56925e+01 -2.76827e+01  5.05264e+01             
       O -6.23577e+01 -6.12146e+00  5.84649e+01             
       H -6.32286e+01 -6.45291e+00  5.86893e+01             
       H -6.16412e+01 -6.58752e+00  5.89293e+01             
       O -5.25544e+01  5.86971e+00  7.12042e+01             
       H -5.28509e+01  6.69075e+00  7.16361e+01             
       H -5.29215e+01  5.80059e+00  7.03169e+01             
       O -5.80712e+01 -2.57246e+01  6.03340e+01             
       H -6.81602e+01 -2.19616e+01  4.59028e+01             
       H -5.83992e+01 -2.64562e+01  6.08623e+01             
       O -6.29660e+01 -1.80885e+01  5.55678e+01             
       H -5.05387e+01 -1.34621e+01  3.59053e+01             
       H -6.25995e+01 -1.85689e+01  5.63275e+01             
       O -5.61445e+01 -1.14410e+01  4.86660e+01             
       H -6.58590e+01 -3.09103e+00  4.68137e+01             
       H -5.65159e+01 -1.06116e+01  4.89689e+01             
       O -6.04387e+01 -2.43591e+01  5.58654e+01             
       H -7.25453e+01 -2.51606e+01  6.78364e+01             
       H -5.81564e+01 -8.70902e+00  6.19681e+01             
       O -8.66162e+01 -1.35065e+01  5.80770e+01             
       H -8.73550e+01 -1.35011e+01  5.87485e+01             
       H -8.60733e+01 -1.42907e+01  5.82176e+01             
       O -6.02521e+01 -3.24343e+01  4.70836e+01             
       H -6.05091e+01 -3.29270e+01  4.78779e+01             
       H -6.62545e+01 -1.79744e+01  6.26196e+01             
       O -6.58853e+01 -1.07068e+01  4.40450e+01             
       H -6.64266e+01 -1.10285e+01  4.48156e+01             
       H -8.03027e+01 -1.90359e+01  2.35347e+01             
       O -7.20513e+01 -2.16095e+01  4.49560e+01             
       H -7.12107e+01 -2.20772e+01  4.48352e+01             
       H -7.25809e+01 -2.19817e+01  4.42310e+01             
       O -6.26293e+01 -2.43396e+01  3.67345e+01             
       H -6.26792e+01 -2.35523e+01  3.62095e+01             
       H -6.18091e+01 -2.42308e+01  3.72530e+01             
       O -4.75745e+01 -2.77149e+01  5.01342e+01             
       H -4.81125e+01 -1.45868e+01  5.06253e+01             
       H -4.71502e+01 -2.82883e+01  5.08049e+01             
       O -5.65578e+01 -7.48313e+00  5.40310e+01             
       H -4.36949e+01 -6.72949e+00  5.43925e+01             
       H -5.59054e+01 -8.18915e+00  5.42138e+01             
       O -5.98049e+01  1.59458e+00  5.09608e+01             
       H -6.14232e+01 -2.90946e+01  4.53215e+01             
       H -6.52926e+01  4.30980e+00  4.74607e+01             
       O -6.97952e+01 -1.61063e+01  4.88319e+01             
       H -6.99046e+01 -1.67229e+01  4.95754e+01             
       H -6.90548e+01 -1.64972e+01  4.83697e+01             
       O -6.57521e+01 -7.54910e+00  4.11809e+01             
       H -6.58110e+01 -1.91577e+01  4.06327e+01             
       H -6.51820e+01 -8.08892e+00  4.06846e+01             
       O -7.03816e+01 -1.72136e+01  5.44065e+01             
       H -7.09529e+01 -1.78735e+01  5.48192e+01             
       H -7.08524e+01 -1.63562e+01  5.44130e+01             
       O -6.28540e+01 -2.28087e+01  5.41832e+01             
       H -6.20280e+01 -2.32616e+01  5.41395e+01             
       H -6.28978e+01 -2.24785e+01  5.51147e+01             
       O -7.51446e+01 -2.18120e+01  4.43563e+01             
       H -7.52065e+01 -2.09042e+01  5.69211e+01             
       H -7.35425e+01 -3.71072e+01  4.39696e+01             
       O -6.15872e+01 -2.17454e+01  6.17349e+01             
       H -6.08603e+01 -2.20529e+01  6.23137e+01             
       H -6.22678e+01 -2.15734e+01  6.23725e+01             
       O -6.32213e+01 -2.11425e+01  5.17837e+01             
       H -6.41177e+01 -2.13550e+01  5.14813e+01             
       H -6.32546e+01 -2.15708e+01  5.26497e+01             
       O -7.99481e+01 -1.70387e+01  5.47085e+01             
       H -7.93555e+01 -1.69011e+01  5.54430e+01             
       H -8.08020e+01 -1.66539e+01  5.49681e+01             
       O -5.41325e+01 -2.31807e+01  4.68248e+01             
       H -5.34502e+01 -2.27202e+01  4.72845e+01             
       H -5.49082e+01 -2.33350e+01  4.74048e+01             
       O -7.59471e+01 -1.68388e+01  2.35713e+01             
       H -7.60876e+01 -1.62360e+01  2.43335e+01             
       H -7.59662e+01 -1.62732e+01  2.27829e+01             
       O -6.87626e+01 -1.92290e+01  2.31927e+01             
       H -4.73618e+01 -1.01436e+01  3.92006e+01             
       H -6.89478e+01 -1.86307e+01  2.24165e+01             
       O -7.00068e+01 -1.72454e+01  5.15929e+01             
       H -7.00869e+01 -1.69398e+01  5.24932e+01             
       H -7.06092e+01 -1.79753e+01  5.14131e+01             
       O -6.63414e+01 -1.38075e+01  7.31027e+01             
       H -6.66481e+01 -1.28534e+01  7.29849e+01             
       H -6.66776e+01 -1.42482e+01  7.39155e+01             
192                                                         
# CELL(abcABC):   12.41850    12.41850    12.41850    90.00000    90.00000    90.00000  Step:      200000  Bead:       0 x_centroid{angstrom}  cell{angstrom}   
       O -8.94498e+01 -1.51595e+01  7.02541e+01             
       H -8.90170e+01 -1.54808e+01  6.94308e+01             
       H -8.86752e+01 -1.50853e+01  7.08644e+01             
       O -8.43893e+01 -1.25195e+01  6.54401e+01             
       H -7.13083e+01 -1.88986e+01  6.12643e+01             
       H -8.38305e+01 -1.19233e+01  6.60117e+01             
       O -8.32188e+01 -2.72261e+01  6.64888e+01             
       H -8.23772e+01 -1.42805e+01  6.64555e+01             
       H -8.38622e+01 -2.66671e+01  6.60486e+01             
       O -5.97100e+01 -2.66410e+01  5.88120e+01             
       H -5.95154e+01 -2.74709e+01  5.92113e+01             
       H -5.88808e+01 -2.62651e+01  5.85169e+01             
       O -6.42599e+01 -2.10980e+01  5.63753e+01             
       H -6.50645e+01 -2.11515e+01  5.57935e+01             
       H -6.41935e+01 -2.19739e+01  5.68661e+01             
       O -6.78805e+01 -2.65314e+01  7.04959e+01             
       H -6.76434e+01 -2.71826e+01  6.98308e+01             
       H -6.70414e+01 -2.61088e+01  7.06512e+01             
       O -7.89780e+01 -2.63996e+01  5.26411e+01             
       H -7.94219e+01 -2.59835e+01  5.18383e+01             
       H -7.23082e+01  9.40711e-01  6.36247e+01             
       O -6.60947e+01 -1.20769e+01  7.15802e+01             
       H -6.54773e+01 -1.17034e+01  7.09309e+01             
       H -6.54516e+01 -2.47001e+01  7.23010e+01             
       O -8.58833e+01 -1.24435e+01  4.81647e+01             
       H -8.54757e+01 -1.31969e+01  4.78141e+01             
       H -8.55815e+01 -1.22310e+01  4.90843e+01             
       O -8.49158e+01 -3.44266e+01  5.94677e+01             
       H -8.51079e+01 -3.34529e+01  5.92813e+01             
       H -8.57081e+01 -3.49055e+01  5.97224e+01             
       O -8.26027e+01 -9.89875e+00  6.13270e+01             
       H -8.18566e+01 -1.02246e+01  6.08211e+01             
       H -8.33967e+01 -1.00170e+01  6.06860e+01             
       O -7.67577e+01 -9.99001e+00  5.29749e+01             
       H -7.68643e+01 -1.01149e+01  5.19875e+01             
       H -6.70475e+01 -1.57943e+01  5.27036e+01             
       O -7.63347e+01 -3.00856e+01  5.50720e+01             
       H -7.58024e+01 -2.93884e+01  5.47592e+01             
       H -7.37030e+01 -3.13284e+01  7.10250e+01             
       O -8.16770e+01 -2.28290e+01  5.14453e+01             
       H -8.22687e+01 -2.26492e+01  5.07018e+01             
       H -8.11692e+01 -2.35440e+01  5.10218e+01             
       O -6.23302e+01 -2.74998e+01  6.78523e+01             
       H -6.20693e+01 -2.67099e+01  6.84162e+01             
       H -6.16177e+01 -2.80899e+01  6.80001e+01             
       O -8.10453e+01 -1.45891e+01  7.33804e+01             
       H -8.07893e+01 -1.55075e+01  7.36197e+01             
       H -8.11380e+01 -1.46853e+01  7.24001e+01             
       O -8.41224e+01 -1.60008e+01  5.63344e+01             
       H -8.37831e+01 -2.78327e+01  5.55754e+01             
       H -8.46861e+01 -1.54601e+01  5.70011e+01             
       O -8.27103e+01 -2.90021e+01  4.64459e+01             
       H -8.19991e+01 -2.93588e+01  4.70486e+01             
       H -8.33105e+01 -2.97441e+01  4.62889e+01             
       O -8.73944e+01 -1.80432e+01  5.77737e+01             
       H -8.80919e+01 -1.85120e+01  5.82062e+01             
       H -8.72556e+01 -1.71497e+01  5.81895e+01             
       O -8.00667e+01  5.21349e+00  5.34355e+01             
       H -6.40971e+01 -1.92819e+01  5.41730e+01             
       H -8.09857e+01  5.36389e+00  5.29115e+01             
       O -8.09049e+01 -2.59164e+01  6.69140e+01             
       H -7.91193e+01 -2.45013e+01  6.28319e+01             
       H -9.26022e+01 -2.57663e+01  6.62796e+01             
       O -7.81206e+01 -2.95038e+01  6.23314e+01             
       H -7.85972e+01 -2.95647e+01  6.31724e+01             
       H -7.87650e+01 -2.96050e+01  6.16370e+01             
       O -8.54636e+01 -1.76982e+01  6.70963e+01             
       H -8.59220e+01 -1.84270e+01  6.75043e+01             
       H -8.49918e+01 -1.71909e+01  6.78135e+01             
       O -7.61477e+01 -4.82843e+01  5.76354e+01             
       H -7.58478e+01 -4.82011e+01  5.85548e+01             
       H -7.56488e+01 -4.89807e+01  6.95478e+01             
       O -8.21928e+01 -7.24678e+00  6.14450e+01             
       H -8.24213e+01 -8.23845e+00  6.13369e+01             
       H -8.21316e+01 -7.09278e+00  6.24596e+01             
       O -6.85663e+01 -2.38546e+01  5.97662e+01             
       H -6.76411e+01 -2.41053e+01  5.95083e+01             
       H -6.91795e+01 -2.42514e+01  5.91297e+01             
       O -7.89998e+01 -2.10592e+01  7.59565e+01             
       H -7.91978e+01 -2.04154e+01  7.67344e+01             
       H -7.98551e+01 -2.14931e+01  7.58559e+01             
       O -9.62172e+01 -2.04313e+01  5.60883e+01             
       H -9.68415e+01 -2.00897e+01  5.67208e+01             
       H -9.53499e+01 -2.00755e+01  5.63579e+01             
       O -7.33690e+01 -8.20648e+00  6.31733e+01             
       H -7.31142e+01 -9.17110e+00  6.30143e+01             
       H -7.31346e+01 -7.96812e+00  6.40678e+01             
       O -7.50390e+01 -1.67866e+01  5.26345e+01             
       H -7.42571e+01 -1.70346e+01  5.30766e+01             
       H -7.52071e+01 -1.74529e+01  3.94766e+01             
       O -7.00911e+01 -1.65767e+01  3.95857e+01             
       H -7.03384e+01 -1.57344e+01  3.91109e+01             
       H -8.28219e+01 -1.63119e+01  4.04679e+01             
       O -7.07879e+01 -1.44451e+01  3.78474e+01             
       H -7.11232e+01 -1.35560e+01  3.81864e+01             
       H -6.99661e+01 -1.42926e+01  3.72768e+01             
       O -7.50256e+01 -2.83053e+01  4.69094e+01             
       H -7.55354e+01 -2.81466e+01  4.77614e+01             
       H -7.41425e+01 -2.80488e+01  5.96396e+01             
       O -6.18098e+01 -2.02007e+01  4.26448e+01             
       H -7.54401e+01 -1.25298e+01  4.82444e+01             
       H -6.18973e+01 -2.03187e+01  4.16951e+01             
       O -7.70623e+01 -3.20049e+01  5.87524e+01             
       H -7.77649e+01 -3.13525e+01  5.84891e+01             
       H -7.67642e+01 -3.25349e+01  5.79596e+01             
       O -6.77705e+01 -2.36187e+01  4.39897e+01             
       H -6.78192e+01 -2.30348e+01  4.48196e+01             
       H -6.73807e+01 -2.29444e+01  4.34040e+01             
       O -6.73126e+01 -3.36920e+01  5.80982e+01             
       H -6.74787e+01 -3.41244e+01  5.89807e+01             
       H -6.64185e+01 -3.33043e+01  5.80970e+01             
       O -7.53019e+01 -6.07970e+00  6.30613e+01             
       H -7.48488e+01 -6.88610e+00  6.27395e+01             
       H -7.61297e+01 -6.25974e+00  6.26324e+01             
       O -7.03326e+01  1.88316e+00  7.90731e+01             
       H -6.96790e+01  1.50851e+00  7.97077e+01             
       H -6.98057e+01  2.00800e+00  7.82292e+01             
       O -7.30134e+01 -3.18993e+01  7.13924e+01             
       H -7.81053e+01 -2.61067e+01  5.27748e+01             
       H -7.27183e+01 -3.13486e+01  7.22219e+01             
       O -7.22348e+01 -1.85787e+01  6.13707e+01             
       H -6.25946e+01 -2.05520e+01  4.30576e+01             
       H -7.26236e+01 -1.93328e+01  6.19253e+01             
       O -6.71658e+01 -1.66794e+01  5.23234e+01             
       H -7.96941e+01 -6.27983e+00  5.34744e+01             
       H -6.81219e+01 -1.66820e+01  5.19953e+01             
       O -7.41104e+01 -2.64225e+01  6.32795e+01             
       H -8.59097e+01 -2.68294e+01  7.50567e+01             
       H -7.29019e+01 -1.23626e+01  6.57743e+01             
       O -1.06418e+02 -1.94730e+01  5.71267e+01             
       H -1.06087e+02 -1.86635e+01  5.66965e+01             
       H -1.05714e+02 -2.00290e+01  5.74781e+01             
       O -7.62609e+01 -3.22003e+01  5.33321e+01             
       H -7.60994e+01 -3.15069e+01  5.27422e+01             
       H -8.08257e+01 -2.52212e+01  6.76622e+01             
       O -7.63710e+01 -1.27976e+01  4.83300e+01             
       H -7.64332e+01 -1.36824e+01  4.87771e+01             
       H -1.00708e+02 -2.69912e+01  2.93400e+01             
       O -8.71808e+01 -2.41399e+01  5.36645e+01             
       H -8.77163e+01 -2.33421e+01  5.34170e+01             
       H -8.77471e+01 -2.49644e+01  5.34784e+01             
       O -7.86323e+01 -2.97802e+01  4.56034e+01             
       H -7.80769e+01 -2.89886e+01  4.57686e+01             
       H -7.91022e+01 -2.95883e+01  4.47626e+01             
       O -5.93516e+01 -3.23474e+01  5.34725e+01             
       H -5.97358e+01 -1.92250e+01  5.39796e+01             
       H -5.92479e+01 -3.29980e+01  5.41617e+01             
       O -6.80027e+01 -5.42193e+00  6.03564e+01             
       H -5.62065e+01 -6.15212e+00  6.05818e+01             
       H -6.74049e+01 -5.62385e+00  5.96546e+01             
       O -7.30616e+01  1.39076e+00  6.31247e+01             
       H -7.59744e+01 -3.02025e+01  5.60173e+01             
       H -7.65322e+01  3.38381e+00  5.30815e+01             
       O -8.43876e+01 -2.32288e+01  5.69271e+01             
       H -8.47214e+01 -2.27623e+01  5.77448e+01             
       H -8.39759e+01 -2.24994e+01  5.64099e+01             
       O -7.74116e+01 -1.09402e+01  5.02928e+01             
       H -7.67553e+01 -2.38650e+01  4.97767e+01             
       H -7.74781e+01 -1.00515e+01  4.99168e+01             
       O -8.22579e+01 -1.92639e+01  6.41446e+01             
       H -8.30059e+01 -1.96955e+01  6.46451e+01             
       H -8.25346e+01 -1.82927e+01  6.41662e+01             
       O -7.27055e+01 -2.81274e+01  6.10531e+01             
       H -7.25917e+01 -2.89068e+01  6.16238e+01             
       H -7.18167e+01 -2.77080e+01  6.13219e+01             
       O -9.24113e+01 -2.49567e+01  5.04526e+01             
       H -9.24980e+01 -2.55202e+01  6.20894e+01             
       H -8.63318e+01 -3.94081e+01  5.16436e+01             
       O -7.03225e+01 -2.52534e+01  7.02246e+01             
       H -6.95179e+01 -2.55518e+01  6.98024e+01             
       H -7.07900e+01 -2.44790e+01  6.97365e+01             
       O -7.53784e+01 -2.24125e+01  6.05022e+01             
       H -7.59604e+01 -2.16842e+01  6.06845e+01             
       H -7.52737e+01 -2.29439e+01  6.12845e+01             
       O -8.88290e+01 -1.52258e+01  6.18679e+01             
       H -8.82389e+01 -1.50780e+01  6.25709e+01             
       H -8.93804e+01 -1.59886e+01  6.21050e+01             
       O -6.87279e+01 -2.90971e+01  5.65192e+01             
       H -6.94769e+01 -2.87041e+01  5.59745e+01             
       H -6.91829e+01 -2.89353e+01  5.73545e+01             
       O -8.67237e+01 -2.48783e+01  3.12900e+01             
       H -8.60274e+01 -2.43799e+01  3.17218e+01             
       H -8.69447e+01 -2.43458e+01  3.05122e+01             
       O -8.84747e+01 -2.66220e+01  2.84567e+01             
       H -6.13844e+01 -1.13611e+01  5.11992e+01             
       H -8.81459e+01 -2.74147e+01  2.79571e+01             
       O -8.92454e+01 -2.02698e+01  6.16577e+01             
       H -9.00352e+01 -2.02467e+01  6.22076e+01             
       H -8.94903e+01 -1.99736e+01  6.07588e+01             
       O -7.91772e+01 -2.19494e+01  7.94983e+01             
       H -7.96393e+01 -2.12369e+01  7.89712e+01             
       H -7.85224e+01 -2.23913e+01  7.89532e+01             
