192                                                         
# CELL(abcABC):   12.41850    12.41850    12.41850    90.00000    90.00000    90.00000  Step:           0  Bead:       0 x_centroid{angstrom}  cell{angstrom}   
       O -8.02937e+01 -1.22945e+01  6.70601e+01             
       H -7.96988e+01 -1.28745e+01  6.65151e+01             
       H -7.97093e+01 -1.18350e+01  6.76381e+01             
       O -7.66887e+01 -1.32152e+01  6.10609e+01             
       H -6.71267e+01 -2.01151e+01  6.04589e+01             
       H -7.61092e+01 -1.24650e+01  6.08479e+01             
       O -7.78601e+01 -2.32533e+01  5.52568e+01             
       H -7.71608e+01 -1.12177e+01  5.47353e+01             
       H -7.75638e+01 -2.34885e+01  5.61903e+01             
       O -6.22735e+01 -2.03717e+01  5.47061e+01             
       H -6.20572e+01 -2.07570e+01  5.55850e+01             
       H -6.31516e+01 -2.00356e+01  5.48567e+01             
       O -6.16572e+01 -2.21900e+01  5.27862e+01             
       H -6.24265e+01 -2.22726e+01  5.21677e+01             
       H -6.17952e+01 -2.15652e+01  5.35061e+01             
       O -6.35935e+01 -1.77371e+01  6.70792e+01             
       H -6.35966e+01 -1.69439e+01  6.65315e+01             
       H -6.40999e+01 -1.74342e+01  6.78864e+01             
       O -7.78510e+01 -2.40977e+01  3.92864e+01             
       H -7.84825e+01 -2.33880e+01  3.93895e+01             
       H -6.75668e+01  1.65786e+00  5.35253e+01             
       O -5.81563e+01 -1.46204e+01  7.28975e+01             
       H -5.75964e+01 -1.45200e+01  7.36615e+01             
       H -5.88253e+01 -2.76651e+01  7.30276e+01             
       O -7.79858e+01 -8.04183e+00  4.14424e+01             
       H -7.81528e+01 -8.25823e+00  4.23929e+01             
       H -7.85538e+01 -8.61298e+00  4.09302e+01             
       O -6.83934e+01 -2.35711e+01  5.74032e+01             
       H -6.90606e+01 -2.33348e+01  5.80801e+01             
       H -6.81320e+01 -2.44725e+01  5.74958e+01             
       O -7.20393e+01 -7.98108e+00  6.01581e+01             
       H -7.19443e+01 -8.17352e+00  6.11027e+01             
       H -7.29883e+01 -7.95489e+00  5.99904e+01             
       O -6.80896e+01 -1.04678e+01  4.91416e+01             
       H -6.86181e+01 -1.06792e+01  4.99804e+01             
       H -6.15822e+01 -1.48903e+01  4.90620e+01             
       O -6.43336e+01 -3.24776e+01  4.96329e+01             
       H -6.37207e+01 -3.24647e+01  4.89027e+01             
       H -6.34118e+01 -2.69828e+01  6.19461e+01             
       O -7.47923e+01 -2.05875e+01  4.69499e+01             
       H -7.52004e+01 -1.98295e+01  4.65742e+01             
       H -7.45233e+01 -2.10346e+01  4.61321e+01             
       O -5.51731e+01 -2.70225e+01  6.26916e+01             
       H -5.47992e+01 -2.64458e+01  6.19738e+01             
       H -5.44213e+01 -2.76494e+01  6.28504e+01             
       O -7.16559e+01 -1.30425e+01  6.32458e+01             
       H -7.23557e+01 -1.34764e+01  6.28022e+01             
       H -7.10410e+01 -1.37356e+01  6.34768e+01             
       O -7.58321e+01 -1.80757e+01  4.62009e+01             
       H -7.64719e+01 -3.03697e+01  4.54631e+01             
       H -7.64202e+01 -1.77390e+01  4.69161e+01             
       O -7.26541e+01 -2.44714e+01  4.48266e+01             
       H -7.25752e+01 -2.46311e+01  4.57798e+01             
       H -7.18287e+01 -2.44146e+01  4.43532e+01             
       O -7.57197e+01 -1.21269e+01  5.36218e+01             
       H -7.50688e+01 -1.13604e+01  5.34581e+01             
       H -7.51844e+01 -1.27380e+01  5.42160e+01             
       O -6.72863e+01  8.39911e+00  5.46104e+01             
       H -5.49752e+01 -2.42579e+01  4.84913e+01             
       H -6.71700e+01  7.62897e+00  5.40740e+01             
       O -7.16895e+01 -2.09547e+01  6.29310e+01             
       H -6.52388e+01 -2.92497e+01  6.13512e+01             
       H -8.48404e+01 -2.13134e+01  6.34460e+01             
       O -6.78427e+01 -3.04196e+01  5.73911e+01             
       H -6.69868e+01 -2.99937e+01  5.72412e+01             
       H -6.84479e+01 -2.96351e+01  5.72628e+01             
       O -7.01434e+01 -1.62111e+01  5.76469e+01             
       H -7.02298e+01 -1.60683e+01  5.85695e+01             
       H -7.09332e+01 -1.58487e+01  5.70992e+01             
       O -6.03771e+01 -4.33993e+01  5.31995e+01             
       H -5.99974e+01 -4.35234e+01  5.40816e+01             
       H -6.12130e+01 -4.38092e+01  6.57539e+01             
       O -7.33594e+01 -8.94649e+00  5.71101e+01             
       H -7.24253e+01 -8.76791e+00  5.73246e+01             
       H -7.34744e+01 -9.90000e+00  5.71346e+01             
       O -6.64028e+01 -2.06998e+01  5.63533e+01             
       H -6.67290e+01 -1.99601e+01  5.69001e+01             
       H -6.62706e+01 -2.14321e+01  5.69698e+01             
       O -6.82354e+01 -1.91684e+01  7.57665e+01             
       H -6.87855e+01 -1.87679e+01  7.50404e+01             
       H -6.88351e+01 -1.92690e+01  7.65504e+01             
       O -8.66107e+01 -1.57463e+01  4.59402e+01             
       H -8.59278e+01 -1.58628e+01  4.52688e+01             
       H -8.69801e+01 -1.66452e+01  4.60115e+01             
       O -6.31941e+01 -6.68404e+00  6.45873e+01             
       H -6.37113e+01 -6.37093e+00  6.53327e+01             
       H -6.37701e+01 -7.02925e+00  6.38959e+01             
       O -6.60078e+01 -1.41564e+01  5.33424e+01             
       H -6.62948e+01 -1.39716e+01  5.24663e+01             
       H -6.64266e+01 -1.50641e+01  4.11531e+01             
       O -6.12663e+01 -1.33277e+01  3.01279e+01             
       H -6.06856e+01 -1.28281e+01  2.94796e+01             
       H -7.35673e+01 -1.30066e+01  3.10209e+01             
       O -5.57497e+01 -1.87591e+01  3.51510e+01             
       H -5.66945e+01 -1.87521e+01  3.49888e+01             
       H -5.54658e+01 -1.85234e+01  3.42407e+01             
       O -7.22668e+01 -2.40731e+01  4.07585e+01             
       H -7.23232e+01 -2.45885e+01  3.98958e+01             
       H -7.28959e+01 -2.33092e+01  5.31467e+01             
       O -5.75137e+01 -1.50935e+01  3.89752e+01             
       H -6.70011e+01 -1.03519e+01  4.56879e+01             
       H -5.78180e+01 -1.59244e+01  3.85625e+01             
       O -6.82658e+01 -2.61373e+01  5.83240e+01             
       H -6.90774e+01 -2.66309e+01  5.80957e+01             
       H -6.82353e+01 -2.58543e+01  5.92564e+01             
       O -5.88173e+01 -1.98241e+01  4.45999e+01             
       H -5.82721e+01 -1.94105e+01  4.52635e+01             
       H -5.81566e+01 -2.04145e+01  4.41648e+01             
       O -6.07468e+01 -2.80973e+01  5.26349e+01             
       H -6.06178e+01 -2.89166e+01  5.31037e+01             
       H -6.08953e+01 -2.83020e+01  5.17031e+01             
       O -6.62289e+01 -5.86997e+00  6.53855e+01             
       H -6.68818e+01 -6.15810e+00  6.47152e+01             
       H -6.59009e+01 -6.76773e+00  6.57701e+01             
       O -5.84520e+01  6.97990e+00  7.26966e+01             
       H -5.89866e+01  6.18409e+00  7.28458e+01             
       H -5.81228e+01  7.20602e+00  7.35553e+01             
       O -6.28770e+01 -2.75993e+01  6.24731e+01             
       H -7.72184e+01 -2.41545e+01  4.00219e+01             
       H -6.29645e+01 -2.72364e+01  6.33708e+01             
       O -6.65021e+01 -2.08249e+01  6.08502e+01             
       H -5.66684e+01 -1.49129e+01  3.84922e+01             
       H -6.62540e+01 -2.13542e+01  6.00235e+01             
       O -6.08824e+01 -1.45916e+01  4.84273e+01             
       H -6.82355e+01 -3.79954e+00  5.45602e+01             
       H -6.11187e+01 -1.50812e+01  4.76182e+01             
       O -6.54476e+01 -2.69774e+01  5.85222e+01             
       H -7.88123e+01 -2.68207e+01  7.07194e+01             
       H -6.47357e+01 -1.29150e+01  6.18190e+01             
       O -9.01542e+01 -1.64496e+01  6.33420e+01             
       H -9.05861e+01 -1.70121e+01  6.39788e+01             
       H -8.93800e+01 -1.62549e+01  6.38870e+01             
       O -6.72099e+01 -3.75985e+01  4.81854e+01             
       H -6.64124e+01 -3.76235e+01  4.76393e+01             
       H -7.16849e+01 -2.00871e+01  6.32412e+01             
       O -6.61716e+01 -1.00942e+01  4.61524e+01             
       H -6.55689e+01 -1.08364e+01  4.61615e+01             
       H -8.66420e+01 -2.38966e+01  2.29123e+01             
       O -7.69282e+01 -2.44840e+01  4.55801e+01             
       H -7.61520e+01 -2.41904e+01  4.60955e+01             
       H -7.70908e+01 -2.54306e+01  4.57181e+01             
       O -7.05542e+01 -2.37716e+01  4.29109e+01             
       H -7.09091e+01 -2.41464e+01  4.21066e+01             
       H -6.96586e+01 -2.40136e+01  4.31442e+01             
       O -5.08997e+01 -2.75539e+01  5.29593e+01             
       H -4.99638e+01 -1.50221e+01  5.32176e+01             
       H -5.13842e+01 -2.67972e+01  5.31774e+01             
       O -6.08588e+01 -5.60408e+00  5.63839e+01             
       H -4.91204e+01 -5.91636e+00  5.57600e+01             
       H -6.02386e+01 -6.34255e+00  5.63352e+01             
       O -6.75537e+01  2.36774e+00  5.28132e+01             
       H -6.52425e+01 -3.27223e+01  4.93074e+01             
       H -6.75618e+01  2.78988e+00  4.91877e+01             
       O -7.11378e+01 -1.75880e+01  5.08751e+01             
       H -7.11514e+01 -1.79596e+01  5.18026e+01             
       H -7.20375e+01 -1.74567e+01  5.06019e+01             
       O -7.01370e+01 -1.03747e+01  4.69183e+01             
       H -7.06863e+01 -2.20060e+01  4.71577e+01             
       H -6.94017e+01 -1.03220e+01  4.75997e+01             
       O -7.77757e+01 -1.67507e+01  5.68010e+01             
       H -7.75977e+01 -1.58789e+01  5.73333e+01             
       H -7.83562e+01 -1.65360e+01  5.60660e+01             
       O -6.95352e+01 -2.11621e+01  5.55792e+01             
       H -6.99150e+01 -2.20638e+01  5.55004e+01             
       H -6.85783e+01 -2.12102e+01  5.58278e+01             
       O -7.81087e+01 -2.91038e+01  4.81148e+01             
       H -7.90058e+01 -2.93659e+01  6.06493e+01             
       H -7.78003e+01 -3.98859e+01  4.69875e+01             
       O -6.32899e+01 -2.24651e+01  6.30727e+01             
       H -6.40224e+01 -2.31050e+01  6.31288e+01             
       H -6.36863e+01 -2.16839e+01  6.26450e+01             
       O -6.99213e+01 -2.29768e+01  5.11994e+01             
       H -7.06452e+01 -2.23338e+01  5.11486e+01             
       H -7.02471e+01 -2.37530e+01  5.17255e+01             
       O -8.44428e+01 -1.56919e+01  5.58292e+01             
       H -8.49250e+01 -1.49263e+01  5.54680e+01             
       H -8.50606e+01 -1.64557e+01  5.59744e+01             
       O -6.01921e+01 -2.45818e+01  4.79372e+01             
       H -5.93118e+01 -2.43644e+01  4.82131e+01             
       H -6.04117e+01 -2.54512e+01  4.82353e+01             
       O -8.18700e+01 -1.92548e+01  2.86182e+01             
       H -8.19125e+01 -1.83591e+01  2.90043e+01             
       H -8.18946e+01 -1.99151e+01  2.93154e+01             
       O -7.50916e+01 -2.37261e+01  2.26877e+01             
       H -5.59485e+01 -1.02456e+01  3.98835e+01             
       H -7.51248e+01 -2.27915e+01  2.30095e+01             
       O -7.37667e+01 -1.77267e+01  5.03959e+01             
       H -7.43970e+01 -1.79964e+01  5.11195e+01             
       H -7.42120e+01 -1.70268e+01  4.99302e+01             
       O -7.00775e+01 -1.67661e+01  7.88328e+01             
       H -7.00300e+01 -1.60952e+01  7.81064e+01             
       H -7.07529e+01 -1.63278e+01  7.93795e+01             
192                                                         
# CELL(abcABC):   12.41850    12.41850    12.41850    90.00000    90.00000    90.00000  Step:      200000  Bead:       0 x_centroid{angstrom}  cell{angstrom}   
       O -9.69920e+01 -1.47877e+01  7.74445e+01             
       H -9.62843e+01 -1.47777e+01  7.67802e+01             
       H -9.72458e+01 -1.57194e+01  7.75169e+01             
       O -8.33672e+01 -1.25878e+01  7.05454e+01             
       H -8.01596e+01 -2.42070e+01  6.83101e+01             
       H -8.35193e+01 -1.16392e+01  7.04866e+01             
       O -9.16867e+01 -2.72317e+01  6.57761e+01             
       H -9.11930e+01 -1.43884e+01  6.65285e+01             
       H -9.26117e+01 -2.70578e+01  6.60293e+01             
       O -8.06022e+01 -2.33581e+01  6.53105e+01             
       H -8.03626e+01 -2.25359e+01  6.48608e+01             
       H -8.02652e+01 -2.32857e+01  6.63259e+01             
       O -7.08276e+01 -2.22124e+01  6.04903e+01             
       H -7.16848e+01 -2.24992e+01  6.03072e+01             
       H -7.04884e+01 -2.29827e+01  6.10390e+01             
       O -7.50550e+01 -2.03783e+01  7.77470e+01             
       H -7.57009e+01 -1.97619e+01  7.73098e+01             
       H -7.43122e+01 -2.03546e+01  7.71060e+01             
       O -8.52654e+01 -2.70516e+01  4.41915e+01             
       H -8.48353e+01 -2.63424e+01  4.46125e+01             
       H -7.71883e+01  1.00735e+00  6.27228e+01             
       O -7.41870e+01 -1.98345e+01  8.06807e+01             
       H -7.37507e+01 -1.89829e+01  8.08796e+01             
       H -7.41202e+01 -3.22464e+01  7.97128e+01             
       O -8.60975e+01 -1.04028e+01  4.95325e+01             
       H -8.67240e+01 -1.05544e+01  5.01938e+01             
       H -8.64627e+01 -1.07070e+01  4.86582e+01             
       O -8.34308e+01 -3.07341e+01  6.15147e+01             
       H -8.32679e+01 -2.99021e+01  6.20268e+01             
       H -8.35598e+01 -3.03303e+01  6.06143e+01             
       O -7.77392e+01 -1.32404e+01  6.77197e+01             
       H -7.82896e+01 -1.33359e+01  6.85223e+01             
       H -7.76744e+01 -1.22869e+01  6.75670e+01             
       O -8.04430e+01 -1.59625e+01  5.64855e+01             
       H -8.10609e+01 -1.65980e+01  5.60962e+01             
       H -7.45750e+01 -2.34679e+01  5.59946e+01             
       O -7.80580e+01 -3.85653e+01  5.85636e+01             
       H -7.71000e+01 -3.84939e+01  5.87083e+01             
       H -7.85385e+01 -3.12226e+01  7.35262e+01             
       O -8.54331e+01 -2.38064e+01  5.38574e+01             
       H -8.59813e+01 -2.41959e+01  5.45454e+01             
       H -8.60227e+01 -2.34970e+01  5.31563e+01             
       O -6.64192e+01 -2.99195e+01  6.53822e+01             
       H -6.70818e+01 -3.01191e+01  6.47169e+01             
       H -6.65617e+01 -2.89662e+01  6.55914e+01             
       O -8.22414e+01 -1.77585e+01  6.80914e+01             
       H -8.22459e+01 -1.76267e+01  6.71419e+01             
       H -8.19485e+01 -1.86940e+01  6.81836e+01             
       O -9.03430e+01 -2.17774e+01  5.35839e+01             
       H -8.95496e+01 -3.44144e+01  5.41533e+01             
       H -8.99595e+01 -2.13299e+01  5.28169e+01             
       O -8.45704e+01 -2.73762e+01  4.91262e+01             
       H -8.45007e+01 -2.64436e+01  4.90178e+01             
       H -8.45836e+01 -2.77187e+01  4.82212e+01             
       O -9.13462e+01 -1.48013e+01  6.28485e+01             
       H -9.05784e+01 -1.48274e+01  6.34152e+01             
       H -9.10973e+01 -1.51613e+01  6.19446e+01             
       O -7.84814e+01  8.68754e+00  5.99314e+01             
       H -6.80356e+01 -3.11051e+01  5.95801e+01             
       H -7.75321e+01  8.41120e+00  5.98248e+01             
       O -8.14396e+01 -2.52896e+01  7.26049e+01             
       H -7.90847e+01 -3.14312e+01  6.65045e+01             
       H -9.46014e+01 -2.50824e+01  7.20166e+01             
       O -7.75379e+01 -3.32750e+01  6.33422e+01             
       H -7.76011e+01 -3.24070e+01  6.28911e+01             
       H -7.73208e+01 -3.39861e+01  6.27731e+01             
       O -8.17082e+01 -1.55448e+01  5.89428e+01             
       H -8.12727e+01 -1.49211e+01  5.95220e+01             
       H -8.11815e+01 -1.55160e+01  5.81154e+01             
       O -7.60853e+01 -4.66828e+01  5.78568e+01             
       H -7.58053e+01 -4.74393e+01  5.84434e+01             
       H -7.55743e+01 -4.59700e+01  7.07037e+01             
       O -8.97030e+01 -1.24386e+01  6.42166e+01             
       H -8.89559e+01 -1.31421e+01  6.44071e+01             
       H -9.04344e+01 -1.28789e+01  6.46911e+01             
       O -8.07535e+01 -2.51602e+01  6.32966e+01             
       H -8.04725e+01 -2.46370e+01  6.40758e+01             
       H -7.99601e+01 -2.54582e+01  6.28427e+01             
       O -8.75984e+01 -2.67575e+01  7.72930e+01             
       H -8.67539e+01 -2.63657e+01  7.75563e+01             
       H -8.74610e+01 -2.72413e+01  7.65002e+01             
       O -1.00415e+02 -2.23196e+01  5.51176e+01             
       H -9.98728e+01 -2.17426e+01  5.45049e+01             
       H -1.00626e+02 -2.18346e+01  5.59244e+01             
       O -7.29089e+01 -8.20367e+00  7.60380e+01             
       H -7.19880e+01 -8.17446e+00  7.64746e+01             
       H -7.29733e+01 -8.87965e+00  7.53935e+01             
       O -7.59286e+01 -1.67404e+01  5.96929e+01             
       H -7.53121e+01 -1.68346e+01  6.03956e+01             
       H -7.54481e+01 -1.69361e+01  4.64382e+01             
       O -7.50514e+01 -1.39714e+01  3.41847e+01             
       H -7.45539e+01 -1.43329e+01  3.34776e+01             
       H -8.77789e+01 -1.47102e+01  3.47290e+01             
       O -6.96889e+01 -2.78508e+01  3.82516e+01             
       H -6.92806e+01 -2.69674e+01  3.84960e+01             
       H -7.04890e+01 -2.76819e+01  3.77042e+01             
       O -8.78403e+01 -2.95924e+01  4.46919e+01             
       H -8.76730e+01 -2.88783e+01  4.40433e+01             
       H -8.85858e+01 -3.00510e+01  5.67000e+01             
       O -6.92670e+01 -2.03496e+01  4.31125e+01             
       H -8.39949e+01 -1.21242e+01  5.29654e+01             
       H -6.83871e+01 -2.03604e+01  4.27161e+01             
       O -8.39523e+01 -2.90828e+01  5.93598e+01             
       H -8.44812e+01 -2.92714e+01  5.84890e+01             
       H -8.30899e+01 -2.86801e+01  5.90667e+01             
       O -6.96700e+01 -2.64496e+01  5.38523e+01             
       H -6.98180e+01 -2.56991e+01  5.31777e+01             
       H -7.05523e+01 -2.68047e+01  5.40676e+01             
       O -7.24976e+01 -2.99801e+01  5.57328e+01             
       H -7.26972e+01 -2.90373e+01  5.59230e+01             
       H -7.14894e+01 -3.01487e+01  5.56969e+01             
       O -7.90404e+01 -9.31843e+00  7.05028e+01             
       H -7.95380e+01 -8.54749e+00  7.07954e+01             
       H -7.81555e+01 -9.00136e+00  7.03551e+01             
       O -7.45434e+01  5.01079e+00  7.16102e+01             
       H -7.46564e+01  5.81206e+00  7.10455e+01             
       H -7.43248e+01  5.29013e+00  7.25414e+01             
       O -7.82373e+01 -3.10542e+01  7.44056e+01             
       H -8.60039e+01 -2.65781e+01  4.38088e+01             
       H -7.73452e+01 -3.07007e+01  7.41331e+01             
       O -7.97013e+01 -2.34078e+01  6.78980e+01             
       H -6.93049e+01 -2.08021e+01  4.39770e+01             
       H -7.98300e+01 -2.26533e+01  6.85427e+01             
       O -7.39536e+01 -2.39712e+01  5.65754e+01             
       H -7.85341e+01 -2.90176e+00  5.94228e+01             
       H -7.35265e+01 -2.32388e+01  5.71850e+01             
       O -7.66403e+01 -3.06421e+01  6.43174e+01             
       H -8.84424e+01 -2.99118e+01  7.65421e+01             
       H -7.02005e+01 -1.28245e+01  7.00416e+01             
       O -1.07263e+02 -2.10296e+01  7.03149e+01             
       H -1.07315e+02 -2.10562e+01  7.12804e+01             
       H -1.08157e+02 -2.11057e+01  7.00147e+01             
       O -7.95485e+01 -4.33032e+01  5.95019e+01             
       H -7.94466e+01 -4.23558e+01  5.95208e+01             
       H -8.17446e+01 -2.51114e+01  7.35171e+01             
       O -8.33301e+01 -1.22001e+01  5.22457e+01             
       H -8.25564e+01 -1.15567e+01  5.23584e+01             
       H -1.00355e+02 -2.75029e+01  2.96828e+01             
       O -9.08512e+01 -3.05812e+01  5.68668e+01             
       H -9.12651e+01 -3.07808e+01  5.76994e+01             
       H -9.09943e+01 -3.12976e+01  5.61628e+01             
       O -7.90976e+01 -2.39747e+01  4.75696e+01             
       H -7.91280e+01 -2.31777e+01  4.69879e+01             
       H -8.00156e+01 -2.43362e+01  4.75914e+01             
       O -6.26733e+01 -2.37489e+01  5.98479e+01             
       H -6.34481e+01 -1.12147e+01  6.04385e+01             
       H -6.26671e+01 -2.46999e+01  5.97180e+01             
       O -7.05660e+01 -8.01709e+00  6.49384e+01             
       H -5.79895e+01 -8.20968e+00  6.59002e+01             
       H -6.97492e+01 -8.03569e+00  6.44092e+01             
       O -7.71229e+01  1.44864e+00  6.18429e+01             
       H -7.84140e+01 -3.78224e+01  5.91029e+01             
       H -7.95828e+01 -4.00901e+00  5.66278e+01             
       O -8.52025e+01 -2.14717e+01  5.74733e+01             
       H -8.56714e+01 -2.11741e+01  5.66646e+01             
       H -8.56226e+01 -2.10456e+01  5.82072e+01             
       O -8.60522e+01 -1.85279e+01  4.94243e+01             
       H -8.50291e+01 -3.08410e+01  4.92168e+01             
       H -8.59594e+01 -1.92159e+01  5.01040e+01             
       O -9.30600e+01 -1.76127e+01  6.30275e+01             
       H -9.33884e+01 -1.66855e+01  6.28896e+01             
       H -9.21586e+01 -1.76215e+01  6.26564e+01             
       O -8.02722e+01 -2.08500e+01  6.37979e+01             
       H -8.07538e+01 -2.06936e+01  6.30078e+01             
       H -7.92868e+01 -2.06409e+01  6.36115e+01             
       O -9.16344e+01 -3.21619e+01  5.47602e+01             
       H -9.12760e+01 -3.29440e+01  6.67028e+01             
       H -8.97774e+01 -4.26348e+01  5.24183e+01             
       O -7.28682e+01 -2.99692e+01  6.49916e+01             
       H -7.19925e+01 -3.03530e+01  6.48458e+01             
       H -7.28271e+01 -3.00953e+01  6.59693e+01             
       O -8.12618e+01 -2.58128e+01  5.63140e+01             
       H -8.16078e+01 -2.59685e+01  5.54642e+01             
       H -8.07445e+01 -2.66685e+01  5.64977e+01             
       O -9.98930e+01 -2.30860e+01  6.44942e+01             
       H -9.99839e+01 -2.21553e+01  6.47193e+01             
       H -1.00710e+02 -2.35007e+01  6.47481e+01             
       O -7.44342e+01 -2.83164e+01  4.99788e+01             
       H -7.35457e+01 -2.80449e+01  4.96189e+01             
       H -7.43216e+01 -2.92662e+01  5.01015e+01             
       O -9.64245e+01 -2.46807e+01  3.70570e+01             
       H -9.61326e+01 -2.46627e+01  3.79932e+01             
       H -9.72043e+01 -2.40800e+01  3.71550e+01             
       O -8.79885e+01 -2.74059e+01  3.06660e+01             
       H -6.55113e+01 -1.11479e+01  4.89381e+01             
       H -8.87007e+01 -2.67168e+01  3.07491e+01             
       O -9.39688e+01 -2.03112e+01  6.13770e+01             
       H -9.42814e+01 -1.94083e+01  6.15594e+01             
       H -9.48199e+01 -2.08396e+01  6.12076e+01             
       O -8.23437e+01 -1.74262e+01  9.01473e+01             
       H -8.22399e+01 -1.65095e+01  8.98912e+01             
       H -8.18222e+01 -1.79263e+01  8.95369e+01             
