192                                                         
# CELL(abcABC):   12.41850    12.41850    12.41850    90.00000    90.00000    90.00000  Step:           0  Bead:       0 x_centroid{angstrom}  cell{angstrom}   
       O -7.42187e+01 -1.02851e+01  6.41715e+01             
       H -7.46802e+01 -1.00340e+01  6.33521e+01             
       H -7.37421e+01 -1.10807e+01  6.39425e+01             
       O -6.46373e+01 -8.03724e+00  5.98369e+01             
       H -6.09244e+01 -1.87484e+01  5.04856e+01             
       H -6.43350e+01 -8.31314e+00  6.07129e+01             
       O -6.68791e+01 -2.39868e+01  4.92762e+01             
       H -6.63598e+01 -1.23532e+01  4.94032e+01             
       H -6.66430e+01 -2.36365e+01  4.84095e+01             
       O -5.56141e+01 -2.19699e+01  5.21322e+01             
       H -5.54050e+01 -2.12340e+01  5.26930e+01             
       H -5.49131e+01 -2.25686e+01  5.24320e+01             
       O -5.22164e+01 -1.95292e+01  5.01243e+01             
       H -5.25375e+01 -1.86011e+01  5.03234e+01             
       H -5.19340e+01 -1.98491e+01  5.09697e+01             
       O -5.61284e+01 -1.82323e+01  6.34577e+01             
       H -5.69509e+01 -1.76883e+01  6.36594e+01             
       H -5.64740e+01 -1.89745e+01  6.28676e+01             
       O -6.52056e+01 -2.00838e+01  4.31453e+01             
       H -6.47282e+01 -1.95980e+01  4.38098e+01             
       H -5.62408e+01  8.92677e-01  5.02651e+01             
       O -4.94132e+01 -1.34085e+01  6.71636e+01             
       H -5.00512e+01 -1.29115e+01  6.76685e+01             
       H -4.88587e+01 -2.62773e+01  6.78200e+01             
       O -7.06239e+01 -7.08531e+00  4.06730e+01             
       H -7.14628e+01 -7.14258e+00  4.01969e+01             
       H -6.99510e+01 -6.65395e+00  4.01055e+01             
       O -6.37424e+01 -2.28257e+01  5.33749e+01             
       H -6.37300e+01 -2.31133e+01  5.42939e+01             
       H -6.28383e+01 -2.29042e+01  5.29757e+01             
       O -6.95873e+01 -5.57283e+00  5.79116e+01             
       H -6.97855e+01 -5.33429e+00  5.88402e+01             
       H -6.87055e+01 -5.25348e+00  5.77390e+01             
       O -6.29702e+01 -9.38229e+00  4.56457e+01             
       H -6.22221e+01 -8.81657e+00  4.55115e+01             
       H -5.59733e+01 -1.04996e+01  4.47771e+01             
       O -5.92382e+01 -2.96040e+01  4.38098e+01             
       H -5.86646e+01 -2.98715e+01  4.45719e+01             
       H -5.86271e+01 -2.57761e+01  5.78260e+01             
       O -6.87465e+01 -2.06204e+01  4.68165e+01             
       H -6.88275e+01 -1.97898e+01  4.63621e+01             
       H -6.80102e+01 -2.04533e+01  4.74458e+01             
       O -5.01551e+01 -2.43953e+01  5.96297e+01             
       H -5.01618e+01 -2.36273e+01  5.90591e+01             
       H -4.92362e+01 -2.45005e+01  5.98460e+01             
       O -6.34289e+01 -1.00635e+01  6.20032e+01             
       H -6.42314e+01 -1.05000e+01  6.22619e+01             
       H -6.29916e+01 -1.07009e+01  6.14252e+01             
       O -6.76296e+01 -9.24404e+00  4.32848e+01             
       H -6.67673e+01 -2.11819e+01  4.33730e+01             
       H -6.82766e+01 -8.54876e+00  4.30390e+01             
       O -6.60153e+01 -2.38574e+01  4.01166e+01             
       H -6.51088e+01 -2.34694e+01  4.02256e+01             
       H -6.59481e+01 -2.45061e+01  3.93879e+01             
       O -6.98020e+01 -1.40689e+01  5.10103e+01             
       H -6.99181e+01 -1.43723e+01  5.19150e+01             
       H -6.97434e+01 -1.30830e+01  5.09915e+01             
       O -6.50593e+01  8.97817e+00  4.47162e+01             
       H -4.60204e+01 -2.12805e+01  4.64911e+01             
       H -6.47439e+01  9.63840e+00  4.53616e+01             
       O -6.05661e+01 -1.71961e+01  5.90239e+01             
       H -6.17666e+01 -1.83301e+01  5.39826e+01             
       H -7.22769e+01 -1.70361e+01  5.96518e+01             
       O -5.79430e+01 -2.86526e+01  5.40478e+01             
       H -5.84037e+01 -2.88042e+01  5.49121e+01             
       H -5.75955e+01 -2.77412e+01  5.41080e+01             
       O -6.84208e+01 -1.55157e+01  5.71246e+01             
       H -6.76942e+01 -1.48631e+01  5.71254e+01             
       H -6.81227e+01 -1.60933e+01  5.64012e+01             
       O -5.83638e+01 -4.16138e+01  5.15116e+01             
       H -5.82943e+01 -4.15282e+01  5.24878e+01             
       H -5.82222e+01 -4.06779e+01  6.35970e+01             
       O -6.26359e+01 -3.70618e+00  4.83484e+01             
       H -6.35448e+01 -4.13988e+00  4.84241e+01             
       H -6.25916e+01 -3.09608e+00  4.90503e+01             
       O -5.73185e+01 -1.99273e+01  5.56611e+01             
       H -5.75521e+01 -1.96283e+01  5.65100e+01             
       H -5.78101e+01 -1.95510e+01  5.49597e+01             
       O -6.42477e+01 -1.99754e+01  6.53518e+01             
       H -6.35341e+01 -1.92848e+01  6.54603e+01             
       H -6.38096e+01 -2.08047e+01  6.56579e+01             
       O -7.89641e+01 -1.46231e+01  4.75439e+01             
       H -7.86794e+01 -1.40332e+01  4.82785e+01             
       H -7.98758e+01 -1.48617e+01  4.76461e+01             
       O -5.81190e+01 -4.85115e+00  6.03673e+01             
       H -5.75979e+01 -4.11715e+00  6.07440e+01             
       H -5.80382e+01 -5.66712e+00  6.08739e+01             
       O -5.99476e+01 -1.22461e+01  4.78953e+01             
       H -5.93784e+01 -1.27201e+01  4.72408e+01             
       H -5.96420e+01 -1.13086e+01  3.55710e+01             
       O -5.52190e+01 -1.19418e+01  2.98398e+01             
       H -5.46891e+01 -1.18223e+01  2.90287e+01             
       H -6.76327e+01 -1.10353e+01  3.02403e+01             
       O -5.05814e+01 -1.55280e+01  2.84519e+01             
       H -5.00159e+01 -1.48798e+01  2.88823e+01             
       H -5.01857e+01 -1.64083e+01  2.83939e+01             
       O -6.12210e+01 -1.99199e+01  3.43454e+01             
       H -6.16379e+01 -1.98513e+01  3.52115e+01             
       H -6.10079e+01 -1.90029e+01  4.65805e+01             
       O -5.03996e+01 -1.45388e+01  3.36439e+01             
       H -6.36234e+01 -1.07506e+01  4.42092e+01             
       H -5.03462e+01 -1.35720e+01  3.38702e+01             
       O -5.95097e+01 -2.46719e+01  5.38776e+01             
       H -5.92940e+01 -2.39117e+01  5.43956e+01             
       H -6.03087e+01 -2.50886e+01  5.41867e+01             
       O -5.03626e+01 -1.43379e+01  3.80185e+01             
       H -5.03262e+01 -1.48385e+01  3.89026e+01             
       H -4.96937e+01 -1.36189e+01  3.80692e+01             
       O -5.31193e+01 -2.60477e+01  5.07411e+01             
       H -5.36242e+01 -2.66163e+01  5.12989e+01             
       H -5.22265e+01 -2.62843e+01  5.04770e+01             
       O -6.15365e+01 -6.08303e+00  5.59512e+01             
       H -6.15590e+01 -7.03779e+00  5.57254e+01             
       H -6.22415e+01 -6.03864e+00  5.66094e+01             
       O -5.15551e+01  6.37537e+00  7.01229e+01             
       H -5.19842e+01  6.23259e+00  7.10329e+01             
       H -5.18485e+01  7.26924e+00  6.99233e+01             
       O -5.80517e+01 -2.53490e+01  5.84777e+01             
       H -6.51801e+01 -1.96229e+01  4.22800e+01             
       H -5.75090e+01 -2.46945e+01  5.79706e+01             
       O -6.02374e+01 -1.87060e+01  5.11971e+01             
       H -5.02736e+01 -1.49754e+01  3.45327e+01             
       H -5.97081e+01 -1.78543e+01  5.11103e+01             
       O -5.60314e+01 -1.08474e+01  4.56818e+01             
       H -6.55365e+01 -2.86078e+00  4.41145e+01             
       H -5.61003e+01 -9.96104e+00  4.60979e+01             
       O -5.72333e+01 -2.59969e+01  5.35309e+01             
       H -6.89208e+01 -2.55300e+01  6.64309e+01             
       H -5.31487e+01 -7.89591e+00  5.98781e+01             
       O -8.53965e+01 -1.46177e+01  5.69532e+01             
       H -8.61826e+01 -1.47333e+01  5.75550e+01             
       H -8.49139e+01 -1.54559e+01  5.70772e+01             
       O -5.91648e+01 -3.41446e+01  4.60589e+01             
       H -5.99582e+01 -3.35978e+01  4.63244e+01             
       H -6.12800e+01 -1.66848e+01  5.93507e+01             
       O -6.38797e+01 -1.15346e+01  4.37398e+01             
       H -6.46412e+01 -1.18977e+01  4.42737e+01             
       H -7.87840e+01 -1.75412e+01  2.15300e+01             
       O -7.12981e+01 -2.23132e+01  4.35032e+01             
       H -7.15231e+01 -2.20326e+01  4.43864e+01             
       H -7.06024e+01 -2.18029e+01  4.31122e+01             
       O -5.81968e+01 -2.22862e+01  3.62319e+01             
       H -5.78294e+01 -2.25464e+01  3.53963e+01             
       H -5.79437e+01 -2.29475e+01  3.69143e+01             
       O -4.43453e+01 -2.72759e+01  4.83458e+01             
       H -4.48613e+01 -1.42709e+01  4.78246e+01             
       H -4.44412e+01 -2.70224e+01  4.92806e+01             
       O -5.46737e+01 -7.06947e+00  5.33386e+01             
       H -4.13553e+01 -7.28444e+00  5.30435e+01             
       H -5.51234e+01 -6.68265e+00  5.25169e+01             
       O -5.70890e+01  9.53913e-01  5.07454e+01             
       H -6.00347e+01 -3.01636e+01  4.38238e+01             
       H -6.35379e+01  3.50509e+00  4.62373e+01             
       O -6.50692e+01 -1.66226e+01  4.82984e+01             
       H -6.54901e+01 -1.66096e+01  4.91780e+01             
       H -6.55181e+01 -1.58646e+01  4.78511e+01             
       O -6.20368e+01 -6.43010e+00  3.69535e+01             
       H -6.22020e+01 -1.79034e+01  3.68154e+01             
       H -6.28216e+01 -6.74751e+00  3.73087e+01             
       O -6.75592e+01 -1.69630e+01  5.47571e+01             
       H -6.72850e+01 -1.78649e+01  5.44967e+01             
       H -6.84477e+01 -1.67886e+01  5.44777e+01             
       O -6.12672e+01 -2.08859e+01  5.48970e+01             
       H -6.04241e+01 -2.13329e+01  5.49625e+01             
       H -6.18660e+01 -2.16378e+01  5.47438e+01             
       O -7.45765e+01 -1.81391e+01  4.06578e+01             
       H -7.38658e+01 -1.83462e+01  5.24381e+01             
       H -7.04337e+01 -3.80397e+01  4.14948e+01             
       O -5.46245e+01 -2.07604e+01  6.13692e+01             
       H -5.52155e+01 -2.12337e+01  6.19574e+01             
       H -5.39701e+01 -2.03410e+01  6.19465e+01             
       O -5.80076e+01 -1.95543e+01  4.96928e+01             
       H -5.86470e+01 -1.94126e+01  5.04289e+01             
       H -5.82005e+01 -2.04031e+01  4.92928e+01             
       O -7.80809e+01 -1.56479e+01  5.29312e+01             
       H -7.72511e+01 -1.54562e+01  5.32634e+01             
       H -7.86771e+01 -1.59862e+01  5.36357e+01             
       O -5.34583e+01 -2.30294e+01  4.68039e+01             
       H -5.30207e+01 -2.22050e+01  4.65003e+01             
       H -5.42394e+01 -2.30825e+01  4.61639e+01             
       O -7.30913e+01 -1.25509e+01  2.57524e+01             
       H -7.29537e+01 -1.25637e+01  2.47899e+01             
       H -7.23069e+01 -1.29718e+01  2.61496e+01             
       O -6.71535e+01 -1.80123e+01  2.18702e+01             
       H -4.43836e+01 -1.09153e+01  3.90783e+01             
       H -6.69314e+01 -1.79717e+01  2.27837e+01             
       O -6.59320e+01 -1.73289e+01  5.07777e+01             
       H -6.57752e+01 -1.66725e+01  5.15008e+01             
       H -6.68869e+01 -1.75037e+01  5.08844e+01             
       O -6.62101e+01 -1.30157e+01  6.93463e+01             
       H -6.66600e+01 -1.26879e+01  6.85478e+01             
       H -6.66682e+01 -1.26317e+01  7.01186e+01             
192                                                         
# CELL(abcABC):   12.41850    12.41850    12.41850    90.00000    90.00000    90.00000  Step:      200000  Bead:       0 x_centroid{angstrom}  cell{angstrom}   
       O -9.07380e+01 -1.36285e+01  7.35106e+01             
       H -8.97992e+01 -1.34613e+01  7.33029e+01             
       H -9.08293e+01 -1.44849e+01  7.38766e+01             
       O -8.02656e+01 -1.18074e+01  6.18303e+01             
       H -7.71746e+01 -2.63945e+01  5.35141e+01             
       H -8.02244e+01 -1.08843e+01  6.21311e+01             
       O -8.21431e+01 -2.94199e+01  5.32532e+01             
       H -8.17800e+01 -1.61783e+01  5.36812e+01             
       H -8.22882e+01 -3.00165e+01  5.40712e+01             
       O -7.50994e+01 -2.73154e+01  6.09882e+01             
       H -7.51912e+01 -2.81863e+01  6.14402e+01             
       H -7.42453e+01 -2.73573e+01  6.05056e+01             
       O -6.50272e+01 -2.22582e+01  5.99229e+01             
       H -6.59062e+01 -2.22530e+01  5.94208e+01             
       H -6.48718e+01 -2.13543e+01  6.02047e+01             
       O -7.00872e+01 -2.06441e+01  7.41317e+01             
       H -6.92729e+01 -2.06073e+01  7.46486e+01             
       H -6.99737e+01 -2.06144e+01  7.31623e+01             
       O -7.73112e+01 -2.36868e+01  5.09452e+01             
       H -7.70246e+01 -2.28608e+01  5.11767e+01             
       H -7.48366e+01 -2.03091e+00  5.78335e+01             
       O -6.40665e+01 -1.76994e+01  7.72245e+01             
       H -6.44657e+01 -1.68739e+01  7.74213e+01             
       H -6.32663e+01 -3.02164e+01  7.78049e+01             
       O -8.65105e+01 -1.12918e+01  4.28426e+01             
       H -8.73295e+01 -1.13157e+01  4.24063e+01             
       H -8.66571e+01 -1.12264e+01  4.37938e+01             
       O -7.56726e+01 -2.44203e+01  5.98244e+01             
       H -7.52799e+01 -2.43500e+01  6.07632e+01             
       H -7.62776e+01 -2.36388e+01  5.98381e+01             
       O -8.25341e+01 -8.41612e+00  6.55284e+01             
       H -8.17869e+01 -9.03930e+00  6.55533e+01             
       H -8.32426e+01 -8.99086e+00  6.59304e+01             
       O -7.63365e+01 -1.23600e+01  5.35768e+01             
       H -7.64372e+01 -1.20058e+01  5.26567e+01             
       H -7.19959e+01 -1.25268e+01  5.11187e+01             
       O -7.23968e+01 -3.07657e+01  5.07401e+01             
       H -7.18978e+01 -3.03881e+01  4.99277e+01             
       H -7.40196e+01 -3.15885e+01  6.52915e+01             
       O -8.33548e+01 -2.91246e+01  5.75912e+01             
       H -8.42179e+01 -2.95929e+01  5.76840e+01             
       H -8.27344e+01 -2.97880e+01  5.78207e+01             
       O -6.22418e+01 -3.01766e+01  7.00534e+01             
       H -6.20194e+01 -2.92250e+01  6.96965e+01             
       H -6.14320e+01 -3.04746e+01  7.05812e+01             
       O -8.06865e+01 -1.52745e+01  6.74787e+01             
       H -8.04238e+01 -1.43999e+01  6.70413e+01             
       H -8.09607e+01 -1.49723e+01  6.83823e+01             
       O -8.32381e+01 -1.24576e+01  5.57570e+01             
       H -8.29837e+01 -2.56282e+01  5.63475e+01             
       H -8.41248e+01 -1.26969e+01  5.54469e+01             
       O -8.13892e+01 -3.07874e+01  4.58556e+01             
       H -8.05585e+01 -3.08975e+01  4.54044e+01             
       H -8.15758e+01 -3.16510e+01  4.62007e+01             
       O -8.95297e+01 -1.59689e+01  5.90794e+01             
       H -8.87776e+01 -1.55525e+01  5.95577e+01             
       H -8.90493e+01 -1.67823e+01  5.87467e+01             
       O -8.46081e+01  8.54358e+00  5.29170e+01             
       H -6.04765e+01 -2.20253e+01  5.29565e+01             
       H -8.36237e+01  8.23075e+00  5.30479e+01             
       O -7.45854e+01 -1.94385e+01  6.81282e+01             
       H -7.32214e+01 -2.17708e+01  6.04382e+01             
       H -8.61654e+01 -1.98133e+01  6.84713e+01             
       O -7.25276e+01 -3.14050e+01  5.87683e+01             
       H -7.29189e+01 -3.22496e+01  5.91475e+01             
       H -7.19634e+01 -3.11085e+01  5.94968e+01             
       O -8.32786e+01 -1.81312e+01  6.07515e+01             
       H -8.28898e+01 -1.88560e+01  6.12571e+01             
       H -8.25540e+01 -1.75150e+01  6.06006e+01             
       O -7.32301e+01 -5.12727e+01  5.47884e+01             
       H -7.38688e+01 -5.08170e+01  5.42595e+01             
       H -7.28906e+01 -5.19415e+01  6.66434e+01             
       O -7.90445e+01 -4.95615e+00  5.43117e+01             
       H -7.95214e+01 -4.21646e+00  5.47960e+01             
       H -7.94791e+01 -5.10198e+00  5.34511e+01             
       O -6.81584e+01 -2.48826e+01  6.62440e+01             
       H -6.89754e+01 -2.46100e+01  6.66804e+01             
       H -6.83689e+01 -2.51640e+01  6.53872e+01             
       O -7.64079e+01 -2.05195e+01  7.61508e+01             
       H -7.68240e+01 -1.96900e+01  7.65152e+01             
       H -7.67690e+01 -2.05373e+01  7.52823e+01             
       O -8.97500e+01 -1.86015e+01  5.81412e+01             
       H -8.89884e+01 -1.82637e+01  5.76582e+01             
       H -8.94467e+01 -1.92847e+01  5.87141e+01             
       O -7.15498e+01 -1.02834e+01  6.94952e+01             
       H -7.10819e+01 -1.09002e+01  6.88522e+01             
       H -7.16736e+01 -9.41068e+00  6.90900e+01             
       O -7.64617e+01 -1.68626e+01  5.57605e+01             
       H -7.60519e+01 -1.60331e+01  5.58849e+01             
       H -7.71099e+01 -1.65849e+01  4.26200e+01             
       O -6.89137e+01 -1.62990e+01  3.55135e+01             
       H -6.89608e+01 -1.66870e+01  3.46462e+01             
       H -8.16194e+01 -1.53127e+01  3.54880e+01             
       O -6.27459e+01 -1.73361e+01  3.75038e+01             
       H -6.33037e+01 -1.75808e+01  3.82694e+01             
       H -6.18941e+01 -1.76845e+01  3.78433e+01             
       O -7.76486e+01 -2.67423e+01  4.43900e+01             
       H -7.80028e+01 -2.70949e+01  4.35789e+01             
       H -7.73787e+01 -2.74495e+01  5.74879e+01             
       O -6.64430e+01 -2.14332e+01  4.30168e+01             
       H -7.99363e+01 -1.53607e+01  5.15785e+01             
       H -6.56040e+01 -2.15234e+01  4.25422e+01             
       O -7.49896e+01 -2.48301e+01  6.23699e+01             
       H -7.40684e+01 -2.46409e+01  6.28908e+01             
       H -7.50060e+01 -2.57523e+01  6.21773e+01             
       O -6.35692e+01 -1.95564e+01  4.81263e+01             
       H -6.27892e+01 -2.01221e+01  4.80632e+01             
       H -6.32814e+01 -1.88926e+01  4.87253e+01             
       O -6.95789e+01 -3.35039e+01  5.88914e+01             
       H -6.88081e+01 -3.39206e+01  5.85410e+01             
       H -7.03142e+01 -3.40855e+01  5.85780e+01             
       O -7.37471e+01 -8.33932e+00  6.44309e+01             
       H -7.46469e+01 -8.40944e+00  6.41903e+01             
       H -7.33063e+01 -7.82859e+00  6.37736e+01             
       O -5.61918e+01  6.18007e+00  7.60419e+01             
       H -5.64223e+01  5.40164e+00  7.65888e+01             
       H -5.64809e+01  6.90255e+00  7.66343e+01             
       O -7.39452e+01 -3.07762e+01  6.57650e+01             
       H -7.65041e+01 -2.40973e+01  5.05513e+01             
       H -7.41320e+01 -3.10148e+01  6.67297e+01             
       O -7.77096e+01 -2.72060e+01  5.37462e+01             
       H -6.66097e+01 -2.04538e+01  4.31351e+01             
       H -7.82767e+01 -2.74222e+01  5.30076e+01             
       O -7.24922e+01 -1.16975e+01  5.10684e+01             
       H -8.52497e+01 -4.64757e+00  5.31267e+01             
       H -7.24556e+01 -1.13525e+01  5.20353e+01             
       O -7.23793e+01 -2.70777e+01  6.00868e+01             
       H -8.42790e+01 -2.77245e+01  7.20111e+01             
       H -6.70148e+01 -1.20152e+01  6.13936e+01             
       O -1.01153e+02 -2.16681e+01  6.68418e+01             
       H -1.00560e+02 -2.11069e+01  6.74361e+01             
       H -1.01274e+02 -2.13865e+01  6.59801e+01             
       O -7.24259e+01 -3.51268e+01  5.34427e+01             
       H -7.29529e+01 -3.54752e+01  5.41479e+01             
       H -7.47116e+01 -1.86985e+01  6.87398e+01             
       O -7.92958e+01 -1.60868e+01  5.17456e+01             
       H -7.89078e+01 -1.62286e+01  5.08240e+01             
       H -9.25369e+01 -2.31575e+01  2.85531e+01             
       O -8.40964e+01 -2.42323e+01  4.68412e+01             
       H -8.36774e+01 -2.39158e+01  4.59925e+01             
       H -8.42552e+01 -2.34447e+01  4.74315e+01             
       O -7.42584e+01 -2.31673e+01  4.55705e+01             
       H -7.32902e+01 -2.31669e+01  4.56620e+01             
       H -7.46607e+01 -2.37116e+01  4.63152e+01             
       O -5.74944e+01 -3.14810e+01  5.51741e+01             
       H -5.75752e+01 -1.96954e+01  5.44116e+01             
       H -5.66937e+01 -3.17144e+01  5.57008e+01             
       O -6.86824e+01 -1.37445e+01  6.38630e+01             
       H -5.71990e+01 -1.39436e+01  6.36379e+01             
       H -6.84310e+01 -1.30394e+01  6.31703e+01             
       O -7.45078e+01 -2.63186e+00  5.71894e+01             
       H -7.23171e+01 -3.00377e+01  5.14252e+01             
       H -7.68107e+01  7.66431e-01  5.40244e+01             
       O -7.92780e+01 -2.52347e+01  5.83465e+01             
       H -7.92073e+01 -2.56192e+01  5.92202e+01             
       H -7.86606e+01 -2.57241e+01  5.77316e+01             
       O -7.95716e+01 -1.00242e+01  4.58368e+01             
       H -7.96248e+01 -2.33590e+01  4.59032e+01             
       H -7.92584e+01 -9.72161e+00  4.49574e+01             
       O -8.00469e+01 -2.17703e+01  6.29628e+01             
       H -7.97489e+01 -2.19016e+01  6.38976e+01             
       H -7.93930e+01 -2.11462e+01  6.26454e+01             
       O -7.19427e+01 -2.25147e+01  6.12611e+01             
       H -7.11525e+01 -2.20424e+01  6.15737e+01             
       H -7.21688e+01 -2.30929e+01  6.20053e+01             
       O -8.61755e+01 -2.11635e+01  4.74791e+01             
       H -8.65548e+01 -2.18005e+01  5.92441e+01             
       H -8.47361e+01 -3.86273e+01  4.71801e+01             
       O -6.93179e+01 -2.58707e+01  7.26473e+01             
       H -6.88140e+01 -2.52860e+01  7.32600e+01             
       H -7.01986e+01 -2.53978e+01  7.23957e+01             
       O -6.95123e+01 -2.67339e+01  5.72112e+01             
       H -6.87721e+01 -2.64419e+01  5.77253e+01             
       H -7.01566e+01 -2.72679e+01  5.76587e+01             
       O -9.09040e+01 -1.94993e+01  6.24707e+01             
       H -9.08354e+01 -1.89258e+01  6.16923e+01             
       H -9.14522e+01 -1.90017e+01  6.30401e+01             
       O -7.16100e+01 -2.68059e+01  5.07189e+01             
       H -7.17522e+01 -2.71807e+01  4.98337e+01             
       H -7.19706e+01 -2.74529e+01  5.13801e+01             
       O -9.17685e+01 -1.88610e+01  3.15279e+01             
       H -9.16417e+01 -1.82825e+01  3.07415e+01             
       H -9.10457e+01 -1.86853e+01  3.21434e+01             
       O -8.01710e+01 -2.21765e+01  2.84632e+01             
       H -6.15941e+01 -1.45266e+01  4.41775e+01             
       H -7.97641e+01 -2.18131e+01  2.93382e+01             
       O -8.43581e+01 -2.02130e+01  5.64524e+01             
       H -8.38685e+01 -1.95165e+01  5.60141e+01             
       H -8.44368e+01 -1.99565e+01  5.73655e+01             
       O -7.88194e+01 -1.65296e+01  7.37782e+01             
       H -7.97793e+01 -1.64310e+01  7.34268e+01             
       H -7.82299e+01 -1.62729e+01  7.30473e+01             
