192                                                         
# CELL(abcABC):   12.41850    12.41850    12.41850    90.00000    90.00000    90.00000  Step:           0  Bead:       0 x_centroid{angstrom}  cell{angstrom}   
       O -7.44065e+01 -1.01279e+01  6.38916e+01             
       H -7.48557e+01 -1.00600e+01  6.30365e+01             
       H -7.37644e+01 -1.08303e+01  6.39158e+01             
       O -6.56543e+01 -8.33064e+00  6.01575e+01             
       H -6.09944e+01 -1.93502e+01  5.06673e+01             
       H -6.48741e+01 -8.20948e+00  6.07152e+01             
       O -6.62862e+01 -2.36463e+01  4.93805e+01             
       H -6.58672e+01 -1.20773e+01  4.95699e+01             
       H -6.64014e+01 -2.36390e+01  4.84029e+01             
       O -5.44533e+01 -2.12053e+01  5.24364e+01             
       H -5.45336e+01 -2.06788e+01  5.32524e+01             
       H -5.42101e+01 -2.20670e+01  5.26819e+01             
       O -5.30359e+01 -1.97452e+01  5.05521e+01             
       H -5.32447e+01 -1.88495e+01  5.07724e+01             
       H -5.32741e+01 -2.02592e+01  5.13717e+01             
       O -5.68966e+01 -1.86176e+01  6.35243e+01             
       H -5.76563e+01 -1.79640e+01  6.35483e+01             
       H -5.67726e+01 -1.89064e+01  6.26031e+01             
       O -6.49802e+01 -2.11333e+01  4.46544e+01             
       H -6.50652e+01 -2.07098e+01  4.54849e+01             
       H -5.53475e+01  1.64921e+00  5.02423e+01             
       O -4.88894e+01 -1.45682e+01  6.74675e+01             
       H -4.94565e+01 -1.42785e+01  6.81588e+01             
       H -4.83539e+01 -2.76221e+01  6.79452e+01             
       O -7.05087e+01 -8.55530e+00  3.98386e+01             
       H -7.14276e+01 -8.77072e+00  4.01307e+01             
       H -7.06418e+01 -7.77047e+00  3.92911e+01             
       O -6.36255e+01 -2.29768e+01  5.39382e+01             
       H -6.33488e+01 -2.36298e+01  5.46088e+01             
       H -6.30181e+01 -2.30852e+01  5.31966e+01             
       O -6.92102e+01 -5.17084e+00  5.73606e+01             
       H -6.95938e+01 -4.71567e+00  5.81253e+01             
       H -6.86681e+01 -4.47270e+00  5.69894e+01             
       O -6.24753e+01 -1.00706e+01  4.50098e+01             
       H -6.22865e+01 -9.58941e+00  4.58268e+01             
       H -5.64439e+01 -1.06385e+01  4.46156e+01             
       O -5.92670e+01 -2.96618e+01  4.36736e+01             
       H -5.83571e+01 -2.98804e+01  4.39688e+01             
       H -5.92415e+01 -2.57655e+01  5.83651e+01             
       O -6.91291e+01 -2.03839e+01  4.63070e+01             
       H -6.90883e+01 -1.95221e+01  4.58830e+01             
       H -6.86692e+01 -2.02989e+01  4.71643e+01             
       O -5.05684e+01 -2.41124e+01  5.99017e+01             
       H -5.06355e+01 -2.39441e+01  5.89579e+01             
       H -4.96273e+01 -2.41644e+01  6.00431e+01             
       O -6.37219e+01 -9.69459e+00  6.16518e+01             
       H -6.46118e+01 -9.95456e+00  6.20271e+01             
       H -6.36244e+01 -1.02614e+01  6.09077e+01             
       O -6.75897e+01 -9.50068e+00  4.31251e+01             
       H -6.67384e+01 -2.15946e+01  4.35298e+01             
       H -6.82550e+01 -8.78987e+00  4.32932e+01             
       O -6.59768e+01 -2.40426e+01  4.04449e+01             
       H -6.50827e+01 -2.38758e+01  4.08758e+01             
       H -6.56747e+01 -2.44819e+01  3.96513e+01             
       O -7.02905e+01 -1.27690e+01  5.12518e+01             
       H -7.03116e+01 -1.25088e+01  5.21826e+01             
       H -6.96932e+01 -1.21276e+01  5.08206e+01             
       O -6.45456e+01  9.12356e+00  4.43767e+01             
       H -4.64385e+01 -2.06465e+01  4.61296e+01             
       H -6.40933e+01  9.77246e+00  4.49476e+01             
       O -6.13749e+01 -1.75508e+01  5.93105e+01             
       H -6.18082e+01 -1.89481e+01  5.44824e+01             
       H -7.28797e+01 -1.73714e+01  5.92401e+01             
       O -5.81296e+01 -2.82667e+01  5.39035e+01             
       H -5.86566e+01 -2.86552e+01  5.45923e+01             
       H -5.80830e+01 -2.73019e+01  5.39040e+01             
       O -6.86476e+01 -1.46331e+01  5.78311e+01             
       H -6.77779e+01 -1.42683e+01  5.78049e+01             
       H -6.90065e+01 -1.45525e+01  5.69595e+01             
       O -5.88910e+01 -4.15040e+01  5.15694e+01             
       H -5.86225e+01 -4.11247e+01  5.24703e+01             
       H -5.88442e+01 -4.08485e+01  6.33165e+01             
       O -6.30198e+01 -4.26448e+00  4.88377e+01             
       H -6.39318e+01 -4.35022e+00  4.86050e+01             
       H -6.30109e+01 -3.55467e+00  4.94540e+01             
       O -5.79617e+01 -2.07359e+01  5.48674e+01             
       H -5.80332e+01 -1.97828e+01  5.51335e+01             
       H -5.78181e+01 -2.06358e+01  5.38943e+01             
       O -6.44116e+01 -2.02372e+01  6.65195e+01             
       H -6.37078e+01 -1.96686e+01  6.62160e+01             
       H -6.40804e+01 -2.11460e+01  6.63977e+01             
       O -7.96311e+01 -1.43074e+01  4.85367e+01             
       H -7.94172e+01 -1.41455e+01  4.94545e+01             
       H -8.05627e+01 -1.45077e+01  4.85106e+01             
       O -5.84559e+01 -4.57235e+00  5.95728e+01             
       H -5.84505e+01 -3.96855e+00  6.03031e+01             
       H -5.84337e+01 -5.47937e+00  5.99248e+01             
       O -6.03037e+01 -1.16817e+01  4.84722e+01             
       H -5.97543e+01 -1.19036e+01  4.76654e+01             
       H -6.00126e+01 -1.08408e+01  3.64224e+01             
       O -5.50001e+01 -1.23681e+01  3.02299e+01             
       H -5.45335e+01 -1.23640e+01  2.93415e+01             
       H -6.75744e+01 -1.14235e+01  3.02554e+01             
       O -5.04401e+01 -1.57198e+01  2.82623e+01             
       H -4.99311e+01 -1.51235e+01  2.88095e+01             
       H -5.00965e+01 -1.66290e+01  2.84447e+01             
       O -6.18119e+01 -2.03531e+01  3.47411e+01             
       H -6.22797e+01 -2.02093e+01  3.55946e+01             
       H -6.15770e+01 -1.94446e+01  4.68171e+01             
       O -5.05282e+01 -1.46155e+01  3.43094e+01             
       H -6.24693e+01 -1.19960e+01  4.42482e+01             
       H -5.06311e+01 -1.37048e+01  3.46921e+01             
       O -6.09393e+01 -2.44718e+01  5.34742e+01             
       H -5.99877e+01 -2.45129e+01  5.34192e+01             
       H -6.09491e+01 -2.52521e+01  5.40883e+01             
       O -5.06317e+01 -1.47982e+01  3.80800e+01             
       H -5.06620e+01 -1.51877e+01  3.89729e+01             
       H -4.98879e+01 -1.41490e+01  3.80926e+01             
       O -5.30825e+01 -2.60153e+01  5.10264e+01             
       H -5.32683e+01 -2.65384e+01  5.18473e+01             
       H -5.21792e+01 -2.62207e+01  5.08752e+01             
       O -6.10389e+01 -7.14630e+00  5.58033e+01             
       H -6.09235e+01 -7.91939e+00  5.52311e+01             
       H -6.16979e+01 -7.23376e+00  5.64931e+01             
       O -5.08447e+01  6.53145e+00  6.95012e+01             
       H -5.03616e+01  6.78471e+00  7.03667e+01             
       H -5.11866e+01  7.37497e+00  6.91361e+01             
       O -5.89401e+01 -2.49680e+01  5.87923e+01             
       H -6.46284e+01 -2.04819e+01  4.40531e+01             
       H -5.80936e+01 -2.47752e+01  5.83971e+01             
       O -6.02311e+01 -1.91697e+01  5.12211e+01             
       H -5.08056e+01 -1.52816e+01  3.49565e+01             
       H -6.00420e+01 -1.82426e+01  5.12211e+01             
       O -5.67941e+01 -1.08869e+01  4.55005e+01             
       H -6.54975e+01 -3.29769e+00  4.45880e+01             
       H -5.73460e+01 -1.01267e+01  4.57365e+01             
       O -5.77681e+01 -2.52748e+01  5.43738e+01             
       H -6.92396e+01 -2.50211e+01  6.68953e+01             
       H -5.33763e+01 -7.47511e+00  5.96707e+01             
       O -8.51287e+01 -1.50244e+01  5.79809e+01             
       H -8.60057e+01 -1.52092e+01  5.83428e+01             
       H -8.47139e+01 -1.58335e+01  5.76284e+01             
       O -5.92024e+01 -3.39490e+01  4.61376e+01             
       H -6.00710e+01 -3.38375e+01  4.64898e+01             
       H -6.17504e+01 -1.73083e+01  6.01983e+01             
       O -6.30152e+01 -1.25809e+01  4.36335e+01             
       H -6.37776e+01 -1.27770e+01  4.41242e+01             
       H -7.79020e+01 -1.82347e+01  2.07353e+01             
       O -7.15584e+01 -2.32541e+01  4.34552e+01             
       H -7.16719e+01 -2.31307e+01  4.44227e+01             
       H -7.08985e+01 -2.25620e+01  4.32074e+01             
       O -5.88937e+01 -2.20724e+01  3.69353e+01             
       H -5.85500e+01 -2.14744e+01  3.62566e+01             
       H -5.81497e+01 -2.25391e+01  3.73316e+01             
       O -4.55760e+01 -2.68795e+01  4.90311e+01             
       H -4.59853e+01 -1.39760e+01  4.82464e+01             
       H -4.57033e+01 -2.63303e+01  4.97950e+01             
       O -5.48163e+01 -6.08471e+00  5.40839e+01             
       H -4.14350e+01 -6.41756e+00  5.40336e+01             
       H -5.52615e+01 -6.60521e+00  5.32837e+01             
       O -5.62722e+01  1.82966e+00  5.05177e+01             
       H -5.96317e+01 -3.05158e+01  4.34165e+01             
       H -6.34025e+01  2.60424e+00  4.47673e+01             
       O -6.59126e+01 -1.66176e+01  4.85349e+01             
       H -6.63669e+01 -1.68148e+01  4.93554e+01             
       H -6.63266e+01 -1.57346e+01  4.83572e+01             
       O -6.25752e+01 -7.15585e+00  3.72969e+01             
       H -6.27792e+01 -1.85800e+01  3.73590e+01             
       H -6.34689e+01 -7.50804e+00  3.75440e+01             
       O -6.77768e+01 -1.56972e+01  5.47711e+01             
       H -6.74824e+01 -1.65827e+01  5.45812e+01             
       H -6.84494e+01 -1.55318e+01  5.41145e+01             
       O -6.06088e+01 -2.14661e+01  5.36188e+01             
       H -6.06226e+01 -2.23609e+01  5.38817e+01             
       H -6.11242e+01 -2.14395e+01  5.28181e+01             
       O -7.47474e+01 -1.86024e+01  4.12707e+01             
       H -7.42618e+01 -1.88593e+01  5.29040e+01             
       H -7.07701e+01 -3.69981e+01  4.23712e+01             
       O -5.59184e+01 -2.03778e+01  6.17076e+01             
       H -5.63095e+01 -2.11997e+01  6.19312e+01             
       H -5.49398e+01 -2.05599e+01  6.19050e+01             
       O -5.94237e+01 -1.92740e+01  4.84897e+01             
       H -6.02956e+01 -1.96551e+01  4.84971e+01             
       H -5.91876e+01 -1.94314e+01  4.94382e+01             
       O -7.80100e+01 -1.52177e+01  5.32592e+01             
       H -7.70416e+01 -1.53547e+01  5.35532e+01             
       H -7.84221e+01 -1.49092e+01  5.41052e+01             
       O -5.42012e+01 -2.32820e+01  4.63784e+01             
       H -5.39970e+01 -2.24435e+01  4.67735e+01             
       H -5.51645e+01 -2.32826e+01  4.61535e+01             
       O -7.33392e+01 -1.31832e+01  2.57940e+01             
       H -7.29646e+01 -1.26503e+01  2.50957e+01             
       H -7.28104e+01 -1.30257e+01  2.65183e+01             
       O -6.62800e+01 -1.83567e+01  2.12179e+01             
       H -4.37485e+01 -1.01556e+01  3.89583e+01             
       H -6.62324e+01 -1.78175e+01  2.20136e+01             
       O -6.69311e+01 -1.70225e+01  5.12178e+01             
       H -6.66119e+01 -1.65104e+01  5.19880e+01             
       H -6.78159e+01 -1.74695e+01  5.14331e+01             
       O -6.55877e+01 -1.31139e+01  6.95740e+01             
       H -6.61802e+01 -1.30398e+01  6.88002e+01             
       H -6.59974e+01 -1.25393e+01  7.02258e+01             
192                                                         
# CELL(abcABC):   12.41850    12.41850    12.41850    90.00000    90.00000    90.00000  Step:      200000  Bead:       0 x_centroid{angstrom}  cell{angstrom}   
       O -9.05668e+01 -1.26608e+01  7.29788e+01             
       H -9.10092e+01 -1.34860e+01  7.30665e+01             
       H -9.07366e+01 -1.22778e+01  7.38701e+01             
       O -8.37166e+01 -1.75476e+01  6.47071e+01             
       H -7.49662e+01 -2.62114e+01  6.18074e+01             
       H -8.36787e+01 -1.84908e+01  6.49562e+01             
       O -8.80184e+01 -2.75760e+01  5.69583e+01             
       H -8.73216e+01 -1.52674e+01  5.62416e+01             
       H -8.75725e+01 -2.76643e+01  5.77965e+01             
       O -7.24456e+01 -2.65938e+01  5.97712e+01             
       H -7.25074e+01 -2.58890e+01  5.90730e+01             
       H -7.19010e+01 -2.61844e+01  6.04842e+01             
       O -6.89381e+01 -2.27919e+01  6.20359e+01             
       H -6.95458e+01 -2.21309e+01  6.15485e+01             
       H -6.89083e+01 -2.24432e+01  6.29107e+01             
       O -7.64494e+01 -1.96346e+01  7.02291e+01             
       H -7.66753e+01 -1.87128e+01  7.02022e+01             
       H -7.64860e+01 -1.99145e+01  6.92754e+01             
       O -8.08105e+01 -2.78953e+01  5.54337e+01             
       H -8.14405e+01 -2.82433e+01  5.60143e+01             
       H -7.58805e+01  2.10609e+00  6.08836e+01             
       O -6.78959e+01 -1.84421e+01  7.14145e+01             
       H -6.87524e+01 -1.85940e+01  7.18379e+01             
       H -6.72408e+01 -3.15402e+01  7.17483e+01             
       O -8.92762e+01 -1.00126e+01  5.08890e+01             
       H -8.94744e+01 -9.26997e+00  5.02359e+01             
       H -8.84669e+01 -9.85567e+00  5.13874e+01             
       O -8.01329e+01 -2.91557e+01  6.32280e+01             
       H -8.10231e+01 -2.90909e+01  6.28973e+01             
       H -8.01791e+01 -2.85878e+01  6.40145e+01             
       O -8.02942e+01 -7.29007e+00  6.36736e+01             
       H -8.00904e+01 -6.41937e+00  6.32588e+01             
       H -7.94633e+01 -7.73968e+00  6.35294e+01             
       O -7.85886e+01 -1.69940e+01  5.46519e+01             
       H -7.89163e+01 -1.79168e+01  5.44175e+01             
       H -7.66935e+01 -1.63771e+01  5.74024e+01             
       O -7.44383e+01 -3.44619e+01  5.20161e+01             
       H -7.37385e+01 -3.50561e+01  5.16432e+01             
       H -7.32424e+01 -3.26242e+01  6.37051e+01             
       O -8.43083e+01 -2.47315e+01  5.32199e+01             
       H -8.43447e+01 -2.38936e+01  5.36804e+01             
       H -8.52077e+01 -2.52019e+01  5.31925e+01             
       O -6.29137e+01 -2.51994e+01  7.28316e+01             
       H -6.38861e+01 -2.50328e+01  7.28997e+01             
       H -6.28845e+01 -2.57704e+01  7.20566e+01             
       O -8.50228e+01 -1.73528e+01  7.03628e+01             
       H -8.43969e+01 -1.66355e+01  7.00467e+01             
       H -8.58638e+01 -1.69444e+01  7.06534e+01             
       O -8.08698e+01 -1.08562e+01  5.52524e+01             
       H -8.05634e+01 -2.40807e+01  5.57518e+01             
       H -8.03397e+01 -1.01188e+01  5.56670e+01             
       O -8.13281e+01 -2.65941e+01  4.65933e+01             
       H -8.05168e+01 -2.70488e+01  4.69402e+01             
       H -8.16541e+01 -2.61832e+01  4.73949e+01             
       O -8.54623e+01 -1.17403e+01  5.81248e+01             
       H -8.63882e+01 -1.15350e+01  5.84754e+01             
       H -8.48496e+01 -1.11457e+01  5.85722e+01             
       O -8.28299e+01  7.79264e+00  4.95922e+01             
       H -6.07991e+01 -2.81332e+01  5.45557e+01             
       H -8.34778e+01  7.71865e+00  5.02988e+01             
       O -7.93315e+01 -2.14614e+01  6.89799e+01             
       H -7.34664e+01 -1.94648e+01  6.13731e+01             
       H -9.08712e+01 -2.17251e+01  6.87998e+01             
       O -6.78654e+01 -3.62881e+01  6.49015e+01             
       H -6.85885e+01 -3.69257e+01  6.48498e+01             
       H -6.79798e+01 -3.59786e+01  6.57849e+01             
       O -8.27770e+01 -2.05058e+01  6.35879e+01             
       H -8.30121e+01 -2.03843e+01  6.45106e+01             
       H -8.18485e+01 -2.02789e+01  6.34611e+01             
       O -7.62855e+01 -4.16838e+01  6.10765e+01             
       H -7.70681e+01 -4.12237e+01  6.08314e+01             
       H -7.63511e+01 -4.18194e+01  7.44379e+01             
       O -8.54870e+01 -5.72096e+00  5.51006e+01             
       H -8.51175e+01 -5.59730e+00  5.59789e+01             
       H -8.48026e+01 -6.03980e+00  5.44678e+01             
       O -6.98444e+01 -2.57143e+01  6.42536e+01             
       H -7.05181e+01 -2.52727e+01  6.47889e+01             
       H -6.96288e+01 -2.66581e+01  6.45328e+01             
       O -7.78009e+01 -2.72798e+01  7.52881e+01             
       H -7.81366e+01 -2.63850e+01  7.56428e+01             
       H -7.84874e+01 -2.79468e+01  7.54356e+01             
       O -9.57526e+01 -1.98498e+01  5.40579e+01             
       H -9.48576e+01 -1.95971e+01  5.45189e+01             
       H -9.60111e+01 -2.07289e+01  5.43892e+01             
       O -7.73869e+01 -1.27983e+01  6.94284e+01             
       H -7.69594e+01 -1.35795e+01  6.98610e+01             
       H -7.69670e+01 -1.20626e+01  6.99028e+01             
       O -7.92630e+01 -1.59828e+01  5.94495e+01             
       H -7.98214e+01 -1.67522e+01  5.93914e+01             
       H -7.85313e+01 -1.63166e+01  4.64947e+01             
       O -7.31796e+01 -1.66803e+01  3.80920e+01             
       H -7.38579e+01 -1.73275e+01  3.81471e+01             
       H -8.60130e+01 -1.58272e+01  3.78446e+01             
       O -6.51483e+01 -1.98551e+01  3.74793e+01             
       H -6.45490e+01 -1.91028e+01  3.74824e+01             
       H -6.53142e+01 -2.00742e+01  3.65498e+01             
       O -7.69233e+01 -2.47755e+01  4.18166e+01             
       H -7.70604e+01 -2.50720e+01  4.27732e+01             
       H -7.77518e+01 -2.44186e+01  5.38872e+01             
       O -6.91627e+01 -1.95253e+01  4.37264e+01             
       H -7.63422e+01 -1.66847e+01  5.21167e+01             
       H -6.92982e+01 -2.04202e+01  4.41191e+01             
       O -7.43171e+01 -2.55072e+01  6.52127e+01             
       H -7.50553e+01 -2.49169e+01  6.54058e+01             
       H -7.44718e+01 -2.59168e+01  6.43113e+01             
       O -6.58684e+01 -2.02121e+01  4.73774e+01             
       H -6.52179e+01 -1.99940e+01  4.66350e+01             
       H -6.60774e+01 -2.11640e+01  4.73313e+01             
       O -7.29711e+01 -3.48032e+01  6.03221e+01             
       H -7.34706e+01 -3.40121e+01  6.02310e+01             
       H -7.29995e+01 -3.50756e+01  6.12471e+01             
       O -7.82111e+01 -1.22384e+01  6.32695e+01             
       H -7.88616e+01 -1.18061e+01  6.38286e+01             
       H -7.75693e+01 -1.15060e+01  6.32128e+01             
       O -6.70750e+01  5.34408e+00  7.91569e+01             
       H -6.76326e+01  5.18317e+00  7.83693e+01             
       H -6.75272e+01  4.99376e+00  7.99559e+01             
       O -7.28032e+01 -3.18957e+01  6.33388e+01             
       H -8.05266e+01 -2.70676e+01  5.58777e+01             
       H -7.19020e+01 -3.22017e+01  6.31940e+01             
       O -7.50545e+01 -2.66399e+01  6.27017e+01             
       H -6.87949e+01 -1.90694e+01  4.44595e+01             
       H -7.58915e+01 -2.71468e+01  6.26674e+01             
       O -7.74320e+01 -1.70107e+01  5.75868e+01             
       H -8.31811e+01 -3.94286e+00  4.90521e+01             
       H -7.78982e+01 -1.69964e+01  5.66980e+01             
       O -7.44749e+01 -2.82892e+01  5.93776e+01             
       H -8.61451e+01 -2.77117e+01  7.21439e+01             
       H -7.22072e+01 -1.72994e+01  6.44959e+01             
       O -1.01607e+02 -2.01728e+01  6.75628e+01             
       H -1.02534e+02 -2.00015e+01  6.71972e+01             
       H -1.01159e+02 -1.93408e+01  6.73012e+01             
       O -7.36329e+01 -3.97660e+01  5.47557e+01             
       H -7.40926e+01 -3.93831e+01  5.40166e+01             
       H -7.96116e+01 -2.18917e+01  6.98562e+01             
       O -7.60211e+01 -1.74636e+01  5.16042e+01             
       H -7.57371e+01 -1.79244e+01  5.24311e+01             
       H -9.51831e+01 -2.77270e+01  3.32118e+01             
       O -8.91664e+01 -2.77491e+01  5.33950e+01             
       H -8.99782e+01 -2.82185e+01  5.36692e+01             
       H -8.94490e+01 -2.68842e+01  5.30981e+01             
       O -8.01180e+01 -2.54671e+01  4.43693e+01             
       H -8.04613e+01 -2.57745e+01  4.52576e+01             
       H -7.91692e+01 -2.53980e+01  4.46198e+01             
       O -6.40570e+01 -3.52722e+01  5.79526e+01             
       H -6.43209e+01 -2.27184e+01  5.88404e+01             
       H -6.32845e+01 -3.47103e+01  5.78066e+01             
       O -7.00648e+01 -1.30329e+01  6.13739e+01             
       H -5.76169e+01 -1.32149e+01  6.23497e+01             
       H -6.97662e+01 -1.21146e+01  6.14034e+01             
       O -7.64328e+01  2.78503e+00  6.04776e+01             
       H -7.45168e+01 -3.45629e+01  5.30235e+01             
       H -7.94402e+01 -4.12061e+00  5.49203e+01             
       O -8.78325e+01 -1.79890e+01  5.42755e+01             
       H -8.69514e+01 -1.80315e+01  5.46428e+01             
       H -8.83345e+01 -1.71564e+01  5.46075e+01             
       O -7.94253e+01 -1.03303e+01  4.71760e+01             
       H -7.90892e+01 -2.36372e+01  4.74961e+01             
       H -8.02830e+01 -1.01633e+01  4.76014e+01             
       O -8.42535e+01 -2.22832e+01  6.73055e+01             
       H -8.52522e+01 -2.22719e+01  6.74742e+01             
       H -8.38528e+01 -2.25123e+01  6.81416e+01             
       O -7.22433e+01 -2.31821e+01  6.31621e+01             
       H -7.14489e+01 -2.26333e+01  6.32000e+01             
       H -7.19883e+01 -2.39723e+01  6.37010e+01             
       O -8.64583e+01 -1.97064e+01  4.82054e+01             
       H -8.58654e+01 -1.93908e+01  5.99485e+01             
       H -8.74625e+01 -4.11122e+01  4.76675e+01             
       O -7.11509e+01 -2.51961e+01  6.84477e+01             
       H -7.11323e+01 -2.53679e+01  6.74997e+01             
       H -7.20755e+01 -2.53247e+01  6.87532e+01             
       O -7.49968e+01 -2.24121e+01  6.72134e+01             
       H -7.57298e+01 -2.17729e+01  6.72424e+01             
       H -7.55047e+01 -2.32551e+01  6.70893e+01             
       O -9.51852e+01 -2.14573e+01  6.00261e+01             
       H -9.52397e+01 -2.05112e+01  6.01651e+01             
       H -9.61171e+01 -2.17161e+01  6.01036e+01             
       O -6.90753e+01 -2.79182e+01  5.28638e+01             
       H -6.89510e+01 -2.79527e+01  5.38526e+01             
       H -6.97319e+01 -2.85916e+01  5.26404e+01             
       O -8.67273e+01 -2.12897e+01  3.31732e+01             
       H -8.74392e+01 -2.05873e+01  3.30104e+01             
       H -8.62032e+01 -2.12667e+01  3.23597e+01             
       O -8.30804e+01 -2.79449e+01  3.22990e+01             
       H -6.33346e+01 -8.95163e+00  4.78693e+01             
       H -8.33776e+01 -2.70963e+01  3.18881e+01             
       O -8.27454e+01 -2.22120e+01  5.73384e+01             
       H -8.22207e+01 -2.30172e+01  5.73537e+01             
       H -8.28556e+01 -2.19431e+01  5.82776e+01             
       O -8.29696e+01 -1.87842e+01  7.21903e+01             
       H -8.36110e+01 -1.84315e+01  7.15504e+01             
       H -8.29492e+01 -1.82274e+01  7.30104e+01             
