192                                                         
# CELL(abcABC):   12.41850    12.41850    12.41850    90.00000    90.00000    90.00000  Step:           0  Bead:       0 x_centroid{angstrom}  cell{angstrom}   
       O -7.93752e+01 -1.28339e+01  6.74268e+01             
       H -7.96526e+01 -1.34445e+01  6.67453e+01             
       H -7.85863e+01 -1.24785e+01  6.71090e+01             
       O -7.45341e+01 -1.34666e+01  6.16793e+01             
       H -6.65528e+01 -1.92892e+01  5.81400e+01             
       H -7.41633e+01 -1.27349e+01  6.11271e+01             
       O -7.74378e+01 -2.34350e+01  5.45111e+01             
       H -7.66434e+01 -1.15582e+01  5.45617e+01             
       H -7.76186e+01 -2.29938e+01  5.53536e+01             
       O -6.21926e+01 -2.09318e+01  5.36741e+01             
       H -6.20971e+01 -2.16521e+01  5.43062e+01             
       H -6.31282e+01 -2.08208e+01  5.34373e+01             
       O -5.96870e+01 -2.08469e+01  5.22433e+01             
       H -5.99131e+01 -2.11735e+01  5.13326e+01             
       H -6.04636e+01 -2.09334e+01  5.27838e+01             
       O -6.18358e+01 -1.87313e+01  6.86628e+01             
       H -6.20882e+01 -1.93137e+01  6.79701e+01             
       H -6.25743e+01 -1.81069e+01  6.87272e+01             
       O -7.53629e+01 -2.34945e+01  3.85329e+01             
       H -7.63544e+01 -2.35211e+01  3.86467e+01             
       H -6.56249e+01  1.74064e+00  5.28138e+01             
       O -5.50538e+01 -1.36448e+01  7.21356e+01             
       H -5.52104e+01 -1.29664e+01  7.14095e+01             
       H -5.43133e+01 -2.56978e+01  7.25774e+01             
       O -7.73699e+01 -7.68724e+00  4.03795e+01             
       H -7.80023e+01 -7.63930e+00  4.11103e+01             
       H -7.77836e+01 -8.43016e+00  3.98821e+01             
       O -6.74647e+01 -2.39535e+01  5.75379e+01             
       H -6.81491e+01 -2.33563e+01  5.78992e+01             
       H -6.77750e+01 -2.42989e+01  5.67243e+01             
       O -7.22618e+01 -8.35868e+00  5.97374e+01             
       H -7.27314e+01 -8.22351e+00  6.05518e+01             
       H -7.29957e+01 -8.29246e+00  5.90890e+01             
       O -6.73876e+01 -9.78218e+00  4.78662e+01             
       H -6.75796e+01 -9.67985e+00  4.88247e+01             
       H -5.84891e+01 -1.47805e+01  4.75591e+01             
       O -6.37331e+01 -3.22623e+01  4.76990e+01             
       H -6.34072e+01 -3.29561e+01  4.71055e+01             
       H -6.17304e+01 -2.70723e+01  6.26584e+01             
       O -7.44143e+01 -2.09239e+01  4.56132e+01             
       H -7.43297e+01 -2.00902e+01  4.51663e+01             
       H -7.40231e+01 -2.15869e+01  4.49528e+01             
       O -5.27936e+01 -2.58821e+01  6.25841e+01             
       H -5.28834e+01 -2.51619e+01  6.19702e+01             
       H -5.24091e+01 -2.65758e+01  6.20365e+01             
       O -7.02000e+01 -1.21137e+01  6.28057e+01             
       H -7.03021e+01 -1.24911e+01  6.19566e+01             
       H -6.96160e+01 -1.27278e+01  6.32112e+01             
       O -7.38645e+01 -1.48719e+01  4.39881e+01             
       H -7.47000e+01 -2.69374e+01  4.43060e+01             
       H -7.40866e+01 -1.54328e+01  4.32164e+01             
       O -7.07968e+01 -2.45704e+01  4.39565e+01             
       H -7.10488e+01 -2.44440e+01  4.48668e+01             
       H -7.01393e+01 -2.39801e+01  4.36476e+01             
       O -7.52871e+01 -1.23127e+01  5.34430e+01             
       H -7.43908e+01 -1.25999e+01  5.37718e+01             
       H -7.58741e+01 -1.31073e+01  5.34244e+01             
       O -6.59665e+01  8.10027e+00  5.38458e+01             
       H -5.22254e+01 -2.37292e+01  4.76363e+01             
       H -6.56153e+01  7.61279e+00  5.31041e+01             
       O -7.16118e+01 -1.82085e+01  6.51939e+01             
       H -6.38407e+01 -2.91643e+01  6.06691e+01             
       H -8.36595e+01 -1.91195e+01  6.51284e+01             
       O -6.66912e+01 -3.04414e+01  5.68038e+01             
       H -6.59825e+01 -2.98265e+01  5.65788e+01             
       H -6.74638e+01 -2.98897e+01  5.68174e+01             
       O -6.86865e+01 -1.61162e+01  5.73997e+01             
       H -6.91841e+01 -1.65790e+01  5.80639e+01             
       H -6.93234e+01 -1.56094e+01  5.69304e+01             
       O -6.18968e+01 -4.34339e+01  5.20844e+01             
       H -6.22557e+01 -4.26039e+01  5.23375e+01             
       H -6.20399e+01 -4.40609e+01  6.51915e+01             
       O -7.29970e+01 -9.64880e+00  5.58020e+01             
       H -7.24052e+01 -8.99701e+00  5.61339e+01             
       H -7.24001e+01 -1.04210e+01  5.57664e+01             
       O -6.62161e+01 -1.99600e+01  5.50699e+01             
       H -6.62409e+01 -1.91034e+01  5.55064e+01             
       H -6.59402e+01 -2.06489e+01  5.56695e+01             
       O -6.76837e+01 -1.83130e+01  7.41548e+01             
       H -6.71864e+01 -1.79088e+01  7.34537e+01             
       H -6.83783e+01 -1.77239e+01  7.43902e+01             
       O -8.44228e+01 -1.59319e+01  4.58883e+01             
       H -8.51201e+01 -1.56621e+01  4.52742e+01             
       H -8.47199e+01 -1.64544e+01  4.66648e+01             
       O -6.15617e+01 -6.60792e+00  6.18761e+01             
       H -6.17504e+01 -6.61295e+00  6.27664e+01             
       H -6.22593e+01 -6.76195e+00  6.12573e+01             
       O -6.49574e+01 -1.42079e+01  5.31490e+01             
       H -6.48308e+01 -1.40702e+01  5.22003e+01             
       H -6.51077e+01 -1.51366e+01  4.08356e+01             
       O -6.01728e+01 -1.27322e+01  2.91497e+01             
       H -5.94605e+01 -1.22104e+01  2.86785e+01             
       H -7.24783e+01 -1.25282e+01  3.00974e+01             
       O -5.41772e+01 -1.66121e+01  3.46689e+01             
       H -5.42714e+01 -1.56670e+01  3.48756e+01             
       H -5.31673e+01 -1.67682e+01  3.46086e+01             
       O -7.07788e+01 -2.33154e+01  4.01619e+01             
       H -7.10307e+01 -2.37489e+01  3.93135e+01             
       H -7.11296e+01 -2.24039e+01  5.24481e+01             
       O -5.58789e+01 -1.43632e+01  3.83589e+01             
       H -6.61888e+01 -1.05469e+01  4.46650e+01             
       H -5.63201e+01 -1.51394e+01  3.80091e+01             
       O -6.60969e+01 -2.70099e+01  5.70522e+01             
       H -6.66035e+01 -2.64594e+01  5.64015e+01             
       H -6.67107e+01 -2.76492e+01  5.74604e+01             
       O -5.85138e+01 -2.03579e+01  4.46466e+01             
       H -5.85846e+01 -1.97341e+01  4.54171e+01             
       H -5.78775e+01 -2.01325e+01  4.39793e+01             
       O -5.91555e+01 -2.74751e+01  5.26304e+01             
       H -5.91173e+01 -2.71265e+01  5.35706e+01             
       H -5.89379e+01 -2.83922e+01  5.27665e+01             
       O -6.55887e+01 -5.54899e+00  6.36364e+01             
       H -6.62764e+01 -5.71204e+00  6.29832e+01             
       H -6.54575e+01 -6.45420e+00  6.41054e+01             
       O -5.69059e+01  5.08130e+00  7.21791e+01             
       H -5.78821e+01  5.02414e+00  7.23116e+01             
       H -5.64875e+01  5.38373e+00  7.29924e+01             
       O -6.15133e+01 -2.78603e+01  6.32456e+01             
       H -7.51186e+01 -2.41120e+01  3.92790e+01             
       H -6.06577e+01 -2.77009e+01  6.37015e+01             
       O -6.62967e+01 -2.01241e+01  5.85226e+01             
       H -5.49724e+01 -1.44424e+01  3.81252e+01             
       H -6.61352e+01 -2.06073e+01  5.76971e+01             
       O -5.77628e+01 -1.43170e+01  4.80456e+01             
       H -6.67851e+01 -3.87138e+00  5.35499e+01             
       H -5.69402e+01 -1.44765e+01  4.75840e+01             
       O -6.40628e+01 -2.66051e+01  5.84470e+01             
       H -7.72444e+01 -2.67578e+01  7.02627e+01             
       H -6.27964e+01 -1.30723e+01  6.22722e+01             
       O -8.87069e+01 -1.62830e+01  6.23788e+01             
       H -8.92045e+01 -1.69014e+01  6.28564e+01             
       H -8.78686e+01 -1.61680e+01  6.27719e+01             
       O -6.52887e+01 -3.63774e+01  4.83094e+01             
       H -6.58661e+01 -3.56123e+01  4.82923e+01             
       H -7.25037e+01 -1.84030e+01  6.48038e+01             
       O -6.54364e+01 -9.93331e+00  4.43959e+01             
       H -6.46689e+01 -1.03647e+01  4.47867e+01             
       H -8.51208e+01 -2.36531e+01  2.24376e+01             
       O -7.57780e+01 -2.38487e+01  4.63716e+01             
       H -7.49193e+01 -2.38281e+01  4.68286e+01             
       H -7.60299e+01 -2.47753e+01  4.64046e+01             
       O -6.92892e+01 -2.29449e+01  4.23665e+01             
       H -6.97771e+01 -2.30005e+01  4.14739e+01             
       H -6.84548e+01 -2.33587e+01  4.22021e+01             
       O -4.97244e+01 -2.82121e+01  5.35916e+01             
       H -4.89121e+01 -1.60605e+01  5.41019e+01             
       H -4.93774e+01 -2.74735e+01  5.31050e+01             
       O -5.98891e+01 -4.51803e+00  5.49547e+01             
       H -4.79042e+01 -5.07028e+00  5.56334e+01             
       H -5.95064e+01 -5.22476e+00  5.43380e+01             
       O -6.56205e+01  2.08417e+00  5.19099e+01             
       H -6.46166e+01 -3.25112e+01  4.79144e+01             
       H -6.71519e+01  3.52966e+00  4.77231e+01             
       O -6.96806e+01 -1.69635e+01  5.00994e+01             
       H -6.99268e+01 -1.73662e+01  5.09226e+01             
       H -7.05122e+01 -1.68806e+01  4.95225e+01             
       O -6.92065e+01 -9.91296e+00  4.60120e+01             
       H -6.96934e+01 -2.17601e+01  4.54266e+01             
       H -6.88389e+01 -9.37443e+00  4.66751e+01             
       O -7.65942e+01 -1.69719e+01  5.65225e+01             
       H -7.64063e+01 -1.64775e+01  5.73473e+01             
       H -7.68535e+01 -1.63959e+01  5.58364e+01             
       O -6.90321e+01 -2.02365e+01  5.48110e+01             
       H -6.91203e+01 -2.11612e+01  5.46018e+01             
       H -6.81079e+01 -2.00444e+01  5.48487e+01             
       O -7.63658e+01 -2.93666e+01  4.72610e+01             
       H -7.62869e+01 -3.03508e+01  5.97013e+01             
       H -7.63684e+01 -3.98639e+01  4.64768e+01             
       O -6.09700e+01 -2.17772e+01  6.24051e+01             
       H -6.15787e+01 -2.23372e+01  6.28340e+01             
       H -6.14993e+01 -2.10271e+01  6.20820e+01             
       O -6.80907e+01 -2.21302e+01  5.06954e+01             
       H -6.84147e+01 -2.12061e+01  5.07586e+01             
       H -6.89196e+01 -2.26253e+01  5.07333e+01             
       O -8.28971e+01 -1.48401e+01  5.53557e+01             
       H -8.34311e+01 -1.40694e+01  5.55140e+01             
       H -8.35171e+01 -1.55916e+01  5.53693e+01             
       O -5.86335e+01 -2.41475e+01  4.68352e+01             
       H -5.80969e+01 -2.34128e+01  4.66208e+01             
       H -5.80559e+01 -2.48941e+01  4.70613e+01             
       O -8.14718e+01 -1.96614e+01  2.69178e+01             
       H -8.14644e+01 -1.96154e+01  2.78738e+01             
       H -8.06748e+01 -1.91766e+01  2.65736e+01             
       O -7.35696e+01 -2.36315e+01  2.28640e+01             
       H -5.41231e+01 -1.03856e+01  3.91817e+01             
       H -7.35074e+01 -2.29790e+01  2.35716e+01             
       O -7.22632e+01 -1.67839e+01  4.87869e+01             
       H -7.27563e+01 -1.76016e+01  4.89141e+01             
       H -7.27134e+01 -1.61211e+01  4.93156e+01             
       O -6.83592e+01 -1.50273e+01  7.83344e+01             
       H -6.85432e+01 -1.48399e+01  7.74006e+01             
       H -6.92624e+01 -1.48911e+01  7.86842e+01             
192                                                         
# CELL(abcABC):   12.41850    12.41850    12.41850    90.00000    90.00000    90.00000  Step:      200000  Bead:       0 x_centroid{angstrom}  cell{angstrom}   
       O -9.42548e+01 -1.65460e+01  7.23729e+01             
       H -9.50213e+01 -1.68012e+01  7.18664e+01             
       H -9.47005e+01 -1.62292e+01  7.31908e+01             
       O -9.00503e+01 -1.84331e+01  6.54821e+01             
       H -7.38814e+01 -2.43723e+01  6.54605e+01             
       H -9.00251e+01 -1.87970e+01  6.45993e+01             
       O -9.03306e+01 -2.49277e+01  5.82001e+01             
       H -9.03647e+01 -1.15453e+01  5.78413e+01             
       H -9.10707e+01 -2.49830e+01  5.87907e+01             
       O -7.00281e+01 -2.48222e+01  6.21782e+01             
       H -7.06796e+01 -2.47177e+01  6.14693e+01             
       H -7.05457e+01 -2.46179e+01  6.30073e+01             
       O -7.47502e+01 -2.64504e+01  6.16298e+01             
       H -7.40592e+01 -2.70837e+01  6.14071e+01             
       H -7.53373e+01 -2.65791e+01  6.08355e+01             
       O -7.69925e+01 -1.70704e+01  7.12262e+01             
       H -7.78795e+01 -1.72678e+01  7.15722e+01             
       H -7.65343e+01 -1.76343e+01  7.18004e+01             
       O -8.56172e+01 -3.04837e+01  4.22582e+01             
       H -8.62967e+01 -3.02801e+01  4.28587e+01             
       H -7.92011e+01 -3.28861e+00  6.30772e+01             
       O -6.56591e+01 -1.19616e+01  7.82007e+01             
       H -6.50835e+01 -1.12651e+01  7.84609e+01             
       H -6.54022e+01 -2.51114e+01  7.87851e+01             
       O -9.23664e+01 -9.75676e+00  4.75423e+01             
       H -9.25931e+01 -1.02617e+01  4.83464e+01             
       H -9.31887e+01 -9.69773e+00  4.69517e+01             
       O -8.01519e+01 -2.33766e+01  6.24432e+01             
       H -8.09942e+01 -2.37518e+01  6.24058e+01             
       H -7.95220e+01 -2.40900e+01  6.25326e+01             
       O -8.37600e+01 -1.58335e+01  6.70816e+01             
       H -8.39738e+01 -1.55151e+01  6.62176e+01             
       H -8.43414e+01 -1.67127e+01  6.71771e+01             
       O -7.70353e+01 -1.35941e+01  5.54225e+01             
       H -7.75139e+01 -1.35674e+01  5.63367e+01             
       H -6.92257e+01 -1.93266e+01  5.71553e+01             
       O -7.43071e+01 -3.29679e+01  5.19267e+01             
       H -7.42811e+01 -3.39679e+01  5.17640e+01             
       H -7.47569e+01 -3.19231e+01  6.61879e+01             
       O -8.32263e+01 -2.49796e+01  5.23335e+01             
       H -8.26160e+01 -2.46461e+01  5.29514e+01             
       H -8.36664e+01 -2.58305e+01  5.26085e+01             
       O -6.50012e+01 -2.78287e+01  6.56727e+01             
       H -6.49694e+01 -2.73338e+01  6.64845e+01             
       H -6.47154e+01 -2.87303e+01  6.56954e+01             
       O -8.12457e+01 -1.51274e+01  6.71248e+01             
       H -8.05184e+01 -1.57952e+01  6.71118e+01             
       H -8.20835e+01 -1.56114e+01  6.71908e+01             
       O -8.75170e+01 -1.76412e+01  5.07484e+01             
       H -8.78334e+01 -3.06173e+01  4.99900e+01             
       H -8.80411e+01 -1.68134e+01  5.06301e+01             
       O -8.46530e+01 -2.74593e+01  5.22711e+01             
       H -8.45437e+01 -2.83322e+01  5.19123e+01             
       H -8.55616e+01 -2.72545e+01  5.23323e+01             
       O -8.85963e+01 -1.43863e+01  5.94067e+01             
       H -8.91609e+01 -1.36634e+01  5.88888e+01             
       H -8.88854e+01 -1.52954e+01  5.91308e+01             
       O -8.08999e+01  8.47489e+00  6.39528e+01             
       H -6.83713e+01 -3.07568e+01  5.40630e+01             
       H -8.08449e+01  7.46422e+00  6.37916e+01             
       O -8.12764e+01 -2.46263e+01  6.96487e+01             
       H -7.53263e+01 -3.57162e+01  6.67248e+01             
       H -9.44094e+01 -2.51378e+01  7.01141e+01             
       O -7.68079e+01 -3.31663e+01  6.34513e+01             
       H -7.66364e+01 -3.40552e+01  6.31019e+01             
       H -7.59277e+01 -3.28700e+01  6.37483e+01             
       O -8.53878e+01 -1.60606e+01  6.15582e+01             
       H -8.56748e+01 -1.68168e+01  6.21032e+01             
       H -8.44491e+01 -1.59209e+01  6.17954e+01             
       O -7.57169e+01 -4.79805e+01  6.24960e+01             
       H -7.49641e+01 -4.82316e+01  6.30379e+01             
       H -7.64271e+01 -4.86221e+01  7.50954e+01             
       O -8.20056e+01 -9.43221e+00  6.61779e+01             
       H -8.12001e+01 -9.82395e+00  6.66703e+01             
       H -8.27867e+01 -9.97485e+00  6.65115e+01             
       O -7.91625e+01 -2.10949e+01  6.50222e+01             
       H -7.94299e+01 -2.19781e+01  6.48072e+01             
       H -7.83709e+01 -2.08938e+01  6.44771e+01             
       O -7.98624e+01 -2.14713e+01  8.03858e+01             
       H -7.91547e+01 -2.17019e+01  8.09995e+01             
       H -7.94586e+01 -2.09277e+01  7.96807e+01             
       O -9.78581e+01 -1.91810e+01  4.95214e+01             
       H -9.73253e+01 -1.86433e+01  5.02386e+01             
       H -9.71569e+01 -1.96230e+01  4.89842e+01             
       O -7.54364e+01 -9.77148e+00  7.23132e+01             
       H -7.53895e+01 -1.05321e+01  7.16601e+01             
       H -7.54803e+01 -1.02410e+01  7.32418e+01             
       O -7.94223e+01 -1.77470e+01  5.97526e+01             
       H -7.95844e+01 -1.85093e+01  6.02839e+01             
       H -8.02736e+01 -1.72512e+01  4.73100e+01             
       O -7.49957e+01 -1.44136e+01  3.94090e+01             
       H -7.58401e+01 -1.48182e+01  3.96854e+01             
       H -8.74313e+01 -1.42498e+01  3.84629e+01             
       O -6.35377e+01 -1.91027e+01  4.41156e+01             
       H -6.30270e+01 -1.96329e+01  4.47614e+01             
       H -6.38852e+01 -1.82776e+01  4.44509e+01             
       O -8.34513e+01 -2.94186e+01  4.51449e+01             
       H -8.25246e+01 -2.97004e+01  4.49347e+01             
       H -8.35895e+01 -2.85439e+01  5.71012e+01             
       O -6.81782e+01 -1.77421e+01  4.47437e+01             
       H -7.29419e+01 -1.10484e+01  5.03736e+01             
       H -6.75241e+01 -1.79474e+01  4.54353e+01             
       O -8.36093e+01 -3.24666e+01  6.00386e+01             
       H -8.38799e+01 -3.34628e+01  5.99811e+01             
       H -8.26852e+01 -3.25214e+01  6.02045e+01             
       O -7.35481e+01 -1.76163e+01  4.64893e+01             
       H -7.35125e+01 -1.74156e+01  4.74493e+01             
       H -7.26274e+01 -1.77899e+01  4.61719e+01             
       O -7.30734e+01 -2.72741e+01  5.81050e+01             
       H -7.34857e+01 -2.81379e+01  5.82648e+01             
       H -7.36931e+01 -2.66049e+01  5.83797e+01             
       O -7.42961e+01 -7.83743e+00  7.08516e+01             
       H -7.40187e+01 -6.92641e+00  7.11553e+01             
       H -7.45917e+01 -8.32973e+00  7.16226e+01             
       O -6.76897e+01 -9.92131e-01  8.55268e+01             
       H -6.83791e+01 -3.02036e-01  8.56224e+01             
       H -6.75268e+01 -1.25823e+00  8.64412e+01             
       O -7.55357e+01 -3.24089e+01  6.64661e+01             
       H -8.55525e+01 -3.14468e+01  4.24591e+01             
       H -7.56902e+01 -3.20424e+01  6.74094e+01             
       O -7.44159e+01 -2.50126e+01  6.59612e+01             
       H -6.77703e+01 -1.77906e+01  4.38579e+01             
       H -7.46770e+01 -2.56717e+01  6.52014e+01             
       O -6.97412e+01 -1.99907e+01  5.66386e+01             
       H -8.09433e+01 -3.98281e+00  6.48579e+01             
       H -6.90395e+01 -2.03891e+01  5.59691e+01             
       O -8.09840e+01 -3.13806e+01  6.32880e+01             
       H -9.34597e+01 -3.20783e+01  7.63686e+01             
       H -7.70191e+01 -1.90647e+01  6.59414e+01             
       O -1.02538e+02 -2.48993e+01  7.54808e+01             
       H -1.02678e+02 -2.58919e+01  7.53435e+01             
       H -1.02567e+02 -2.47459e+01  7.64843e+01             
       O -8.01034e+01 -4.25421e+01  5.42427e+01             
       H -7.92461e+01 -4.28530e+01  5.38098e+01             
       H -8.12680e+01 -2.45956e+01  6.86730e+01             
       O -7.32510e+01 -1.08213e+01  5.12860e+01             
       H -7.24441e+01 -1.02840e+01  5.16585e+01             
       H -9.62350e+01 -3.07155e+01  2.77205e+01             
       O -8.52834e+01 -2.54576e+01  5.57399e+01             
       H -8.50329e+01 -2.63675e+01  5.60255e+01             
       H -8.58096e+01 -2.55532e+01  5.49548e+01             
       O -8.26959e+01 -2.76640e+01  4.98466e+01             
       H -8.25800e+01 -2.66951e+01  4.97425e+01             
       H -8.21119e+01 -2.79811e+01  5.06115e+01             
       O -6.39930e+01 -3.14436e+01  6.08421e+01             
       H -6.36654e+01 -1.99309e+01  6.09052e+01             
       H -6.49273e+01 -3.15396e+01  6.09816e+01             
       O -7.28830e+01 -1.20091e+01  6.14255e+01             
       H -6.12356e+01 -1.26075e+01  6.13912e+01             
       H -7.27818e+01 -1.14172e+01  6.05972e+01             
       O -7.87884e+01 -2.86455e+00  6.23017e+01             
       H -7.37174e+01 -3.25861e+01  5.11766e+01             
       H -7.62161e+01 -7.49938e-01  5.56885e+01             
       O -8.22982e+01 -2.24111e+01  5.81400e+01             
       H -8.20014e+01 -2.32246e+01  5.76016e+01             
       H -8.22887e+01 -2.16206e+01  5.76112e+01             
       O -8.10764e+01 -1.24058e+01  5.43275e+01             
       H -8.11004e+01 -2.58102e+01  5.43113e+01             
       H -8.01976e+01 -1.22245e+01  5.40345e+01             
       O -9.15263e+01 -2.02409e+01  6.15860e+01             
       H -9.15316e+01 -2.09007e+01  6.23015e+01             
       H -9.19828e+01 -2.07694e+01  6.08161e+01             
       O -8.26681e+01 -2.16049e+01  6.34678e+01             
       H -8.26125e+01 -2.22946e+01  6.41535e+01             
       H -8.18600e+01 -2.17917e+01  6.30046e+01             
       O -8.84706e+01 -3.51897e+01  5.46704e+01             
       H -8.83490e+01 -3.42116e+01  6.67641e+01             
       H -9.25974e+01 -4.40739e+01  5.04027e+01             
       O -7.76918e+01 -2.23166e+01  6.95243e+01             
       H -7.70131e+01 -2.23894e+01  6.88994e+01             
       H -7.75473e+01 -2.18661e+01  7.03153e+01             
       O -8.30700e+01 -2.59451e+01  5.92073e+01             
       H -8.38492e+01 -2.64491e+01  5.90091e+01             
       H -8.23920e+01 -2.66546e+01  5.93798e+01             
       O -9.94598e+01 -2.36590e+01  5.71542e+01             
       H -9.98842e+01 -2.33548e+01  5.63614e+01             
       H -9.86860e+01 -2.41702e+01  5.68304e+01             
       O -7.25023e+01 -3.27966e+01  5.61471e+01             
       H -7.15244e+01 -3.26903e+01  5.63233e+01             
       H -7.28847e+01 -3.29158e+01  5.70269e+01             
       O -9.73368e+01 -2.26071e+01  3.45123e+01             
       H -9.82071e+01 -2.24571e+01  3.40839e+01             
       H -9.67798e+01 -2.27632e+01  3.37336e+01             
       O -8.45332e+01 -3.02823e+01  2.72401e+01             
       H -6.63328e+01 -1.59213e+01  4.91301e+01             
       H -8.52964e+01 -3.04494e+01  2.78237e+01             
       O -8.44573e+01 -2.28990e+01  5.42756e+01             
       H -8.45957e+01 -2.36587e+01  5.47871e+01             
       H -8.49304e+01 -2.22146e+01  5.48706e+01             
       O -8.25202e+01 -1.92189e+01  7.86006e+01             
       H -8.29193e+01 -1.93402e+01  7.94817e+01             
       H -8.22664e+01 -2.01516e+01  7.83731e+01             
