192                                                         
# CELL(abcABC):   12.41850    12.41850    12.41850    90.00000    90.00000    90.00000  Step:           0  Bead:       0 x_centroid{angstrom}  cell{angstrom}   
       O -7.66196e+01 -1.23351e+01  6.36885e+01             
       H -7.71937e+01 -1.20425e+01  6.29012e+01             
       H -7.56851e+01 -1.22969e+01  6.33963e+01             
       O -6.92142e+01 -8.92733e+00  6.18131e+01             
       H -6.36554e+01 -1.85224e+01  5.33339e+01             
       H -6.86950e+01 -8.96380e+00  6.25811e+01             
       O -6.88488e+01 -2.39814e+01  5.15333e+01             
       H -6.87537e+01 -1.13130e+01  5.24714e+01             
       H -6.88199e+01 -2.49599e+01  5.15479e+01             
       O -5.55380e+01 -2.24809e+01  5.38857e+01             
       H -5.58713e+01 -2.31972e+01  5.44684e+01             
       H -5.46196e+01 -2.26628e+01  5.37640e+01             
       O -5.51097e+01 -2.02738e+01  5.19056e+01             
       H -5.55569e+01 -1.94549e+01  5.15918e+01             
       H -5.55368e+01 -2.04114e+01  5.27381e+01             
       O -5.87689e+01 -1.83758e+01  6.37982e+01             
       H -5.94602e+01 -1.76870e+01  6.38905e+01             
       H -5.88684e+01 -1.87120e+01  6.29058e+01             
       O -6.74817e+01 -2.12055e+01  4.47697e+01             
       H -6.76383e+01 -2.07795e+01  4.56213e+01             
       H -5.87266e+01  2.15072e+00  5.05633e+01             
       O -5.09958e+01 -1.38932e+01  6.82655e+01             
       H -5.14143e+01 -1.30541e+01  6.84316e+01             
       H -5.07661e+01 -2.66889e+01  6.91677e+01             
       O -7.14561e+01 -8.43693e+00  4.05270e+01             
       H -7.17324e+01 -8.40656e+00  4.14594e+01             
       H -7.15363e+01 -7.61740e+00  4.00827e+01             
       O -6.53214e+01 -2.34833e+01  5.36272e+01             
       H -6.46451e+01 -2.34683e+01  5.43371e+01             
       H -6.48062e+01 -2.39124e+01  5.29491e+01             
       O -7.07223e+01 -4.81969e+00  5.95956e+01             
       H -7.15282e+01 -4.53489e+00  6.00253e+01             
       H -6.99526e+01 -4.45002e+00  6.00768e+01             
       O -6.43338e+01 -8.90424e+00  4.74997e+01             
       H -6.44017e+01 -8.61722e+00  4.84018e+01             
       H -5.65101e+01 -1.16148e+01  4.74593e+01             
       O -6.03546e+01 -2.86951e+01  4.53631e+01             
       H -5.94143e+01 -2.86069e+01  4.55987e+01             
       H -5.87754e+01 -2.48378e+01  5.97273e+01             
       O -7.06270e+01 -1.93227e+01  4.54773e+01             
       H -6.96618e+01 -1.93882e+01  4.54807e+01             
       H -7.07228e+01 -1.85595e+01  4.60449e+01             
       O -5.00199e+01 -2.29592e+01  5.85007e+01             
       H -5.04851e+01 -2.23441e+01  5.91245e+01             
       H -4.91310e+01 -2.26268e+01  5.87100e+01             
       O -6.64666e+01 -1.14390e+01  6.25314e+01             
       H -6.72360e+01 -1.13796e+01  6.31394e+01             
       H -6.68186e+01 -1.14765e+01  6.16262e+01             
       O -6.93085e+01 -1.09607e+01  4.46524e+01             
       H -6.88707e+01 -2.25646e+01  4.49549e+01             
       H -7.01881e+01 -1.09727e+01  4.50321e+01             
       O -6.78732e+01 -2.59526e+01  4.11933e+01             
       H -6.71258e+01 -2.53406e+01  4.13399e+01             
       H -6.75389e+01 -2.68956e+01  4.12748e+01             
       O -7.18120e+01 -1.26569e+01  5.24418e+01             
       H -7.13700e+01 -1.23550e+01  5.32028e+01             
       H -7.16819e+01 -1.20347e+01  5.17285e+01             
       O -6.56505e+01  7.31976e+00  4.52761e+01             
       H -4.66359e+01 -2.07467e+01  4.63165e+01             
       H -6.52762e+01  7.74919e+00  4.44628e+01             
       O -6.38590e+01 -1.80859e+01  6.11824e+01             
       H -6.12920e+01 -1.98833e+01  5.58219e+01             
       H -7.60299e+01 -1.75504e+01  6.04062e+01             
       O -5.99536e+01 -2.83139e+01  5.50068e+01             
       H -6.03077e+01 -2.85322e+01  5.58998e+01             
       H -6.01028e+01 -2.74480e+01  5.47005e+01             
       O -6.82070e+01 -1.82511e+01  5.69019e+01             
       H -6.74036e+01 -1.78639e+01  5.72224e+01             
       H -6.86013e+01 -1.76842e+01  5.62709e+01             
       O -6.10109e+01 -4.16641e+01  5.20144e+01             
       H -6.06380e+01 -4.09851e+01  5.25733e+01             
       H -6.14798e+01 -4.12915e+01  6.36974e+01             
       O -6.57522e+01 -4.41869e+00  5.05770e+01             
       H -6.62921e+01 -4.37948e+00  4.97653e+01             
       H -6.55182e+01 -3.54306e+00  5.09649e+01             
       O -5.88396e+01 -2.12040e+01  5.56926e+01             
       H -5.79963e+01 -2.16127e+01  5.54777e+01             
       H -5.85988e+01 -2.04750e+01  5.63275e+01             
       O -6.46684e+01 -2.04066e+01  6.80024e+01             
       H -6.37185e+01 -2.03762e+01  6.78451e+01             
       H -6.49000e+01 -2.13584e+01  6.79997e+01             
       O -8.09534e+01 -1.42520e+01  4.49954e+01             
       H -8.15068e+01 -1.34365e+01  4.49927e+01             
       H -8.14287e+01 -1.50819e+01  4.49915e+01             
       O -5.98606e+01 -3.29724e+00  6.13335e+01             
       H -5.93266e+01 -3.16104e+00  6.20743e+01             
       H -6.07009e+01 -2.88725e+00  6.15664e+01             
       O -6.04925e+01 -1.25992e+01  4.70190e+01             
       H -6.03832e+01 -1.19626e+01  4.62829e+01             
       H -6.07430e+01 -1.21475e+01  3.54142e+01             
       O -5.73962e+01 -1.20440e+01  2.97240e+01             
       H -5.68676e+01 -1.28711e+01  2.94950e+01             
       H -6.96563e+01 -1.18183e+01  3.06793e+01             
       O -5.24740e+01 -1.65279e+01  3.03833e+01             
       H -5.21222e+01 -1.56832e+01  3.07006e+01             
       H -5.16308e+01 -1.68894e+01  3.00200e+01             
       O -6.50765e+01 -2.12954e+01  3.79174e+01             
       H -6.55428e+01 -2.21017e+01  3.76924e+01             
       H -6.54763e+01 -2.08585e+01  5.11173e+01             
       O -5.11184e+01 -1.31926e+01  3.48736e+01             
       H -6.36096e+01 -1.09407e+01  4.43724e+01             
       H -5.17412e+01 -1.26140e+01  3.44290e+01             
       O -6.16815e+01 -2.66197e+01  5.28723e+01             
       H -6.09932e+01 -2.59873e+01  5.29700e+01             
       H -6.23960e+01 -2.65376e+01  5.35134e+01             
       O -5.28774e+01 -1.46210e+01  3.95889e+01             
       H -5.31259e+01 -1.47178e+01  4.05032e+01             
       H -5.23796e+01 -1.38100e+01  3.94834e+01             
       O -5.53369e+01 -2.65710e+01  4.96346e+01             
       H -5.60753e+01 -2.58940e+01  4.94066e+01             
       H -5.46613e+01 -2.59690e+01  4.99503e+01             
       O -6.09647e+01 -6.49393e+00  5.74520e+01             
       H -6.19002e+01 -6.64831e+00  5.77182e+01             
       H -6.05302e+01 -7.18000e+00  5.80755e+01             
       O -5.11120e+01  5.41684e+00  7.05601e+01             
       H -5.17289e+01  6.14535e+00  7.07232e+01             
       H -5.16591e+01  4.83135e+00  6.99613e+01             
       O -5.78903e+01 -2.51202e+01  6.00161e+01             
       H -6.66509e+01 -2.08529e+01  4.43825e+01             
       H -5.80567e+01 -2.60412e+01  6.02195e+01             
       O -6.29975e+01 -1.79912e+01  5.38569e+01             
       H -5.02394e+01 -1.28658e+01  3.46540e+01             
       H -6.23880e+01 -1.75993e+01  5.32086e+01             
       O -5.56796e+01 -1.10956e+01  4.76165e+01             
       H -6.58108e+01 -4.34703e+00  4.58521e+01             
       H -5.60755e+01 -1.03298e+01  4.80333e+01             
       O -6.07126e+01 -2.51830e+01  5.50854e+01             
       H -7.35794e+01 -2.45234e+01  6.70078e+01             
       H -5.64717e+01 -8.13744e+00  6.14099e+01             
       O -8.77328e+01 -1.54820e+01  5.80603e+01             
       H -8.78905e+01 -1.49101e+01  5.88167e+01             
       H -8.67602e+01 -1.56076e+01  5.80134e+01             
       O -5.99721e+01 -3.34373e+01  4.64682e+01             
       H -6.00187e+01 -3.33562e+01  4.74342e+01             
       H -6.43386e+01 -1.75512e+01  6.18423e+01             
       O -6.43713e+01 -1.09947e+01  4.37398e+01             
       H -6.51179e+01 -1.11797e+01  4.43071e+01             
       H -7.95284e+01 -1.97069e+01  2.33593e+01             
       O -7.21017e+01 -2.35760e+01  4.46917e+01             
       H -7.21593e+01 -2.26899e+01  4.42489e+01             
       H -7.20455e+01 -2.42095e+01  4.39345e+01             
       O -6.19601e+01 -2.37460e+01  3.72457e+01             
       H -6.20637e+01 -2.27682e+01  3.72716e+01             
       H -6.12161e+01 -2.38465e+01  3.78863e+01             
       O -4.55810e+01 -2.73794e+01  5.13916e+01             
       H -4.58886e+01 -1.41763e+01  5.19376e+01             
       H -4.45971e+01 -2.73418e+01  5.14313e+01             
       O -5.65836e+01 -7.24290e+00  5.46121e+01             
       H -4.35504e+01 -6.98209e+00  5.52942e+01             
       H -5.63377e+01 -8.18515e+00  5.45123e+01             
       O -5.95155e+01  2.08303e+00  5.10825e+01             
       H -6.05975e+01 -2.96376e+01  4.53273e+01             
       H -6.39445e+01  4.22736e+00  4.70054e+01             
       O -6.85286e+01 -1.66941e+01  4.87122e+01             
       H -6.85026e+01 -1.70723e+01  4.96136e+01             
       H -6.80213e+01 -1.58171e+01  4.86557e+01             
       O -6.49874e+01 -6.57903e+00  3.98192e+01             
       H -6.53279e+01 -1.82877e+01  3.92729e+01             
       H -6.56618e+01 -6.77005e+00  4.05164e+01             
       O -7.00323e+01 -1.68555e+01  5.51772e+01             
       H -7.03126e+01 -1.76848e+01  5.47946e+01             
       H -7.08724e+01 -1.64038e+01  5.53600e+01             
       O -6.16648e+01 -2.29573e+01  5.36493e+01             
       H -6.08211e+01 -2.29364e+01  5.32209e+01             
       H -6.17514e+01 -2.22729e+01  5.42678e+01             
       O -7.41933e+01 -2.02669e+01  4.26225e+01             
       H -7.45244e+01 -1.94794e+01  5.45420e+01             
       H -7.38096e+01 -3.80784e+01  4.31752e+01             
       O -5.95921e+01 -2.02116e+01  6.14974e+01             
       H -5.91480e+01 -2.09103e+01  6.19681e+01             
       H -6.04873e+01 -2.01564e+01  6.18909e+01             
       O -6.24400e+01 -2.14252e+01  5.08265e+01             
       H -6.34113e+01 -2.13751e+01  5.06614e+01             
       H -6.24514e+01 -2.18734e+01  5.16997e+01             
       O -8.00818e+01 -1.61794e+01  5.37008e+01             
       H -7.93284e+01 -1.65593e+01  5.42221e+01             
       H -8.09240e+01 -1.63646e+01  5.40685e+01             
       O -5.30721e+01 -2.37792e+01  4.65685e+01             
       H -5.27345e+01 -2.29040e+01  4.67144e+01             
       H -5.40328e+01 -2.37874e+01  4.67143e+01             
       O -7.44414e+01 -1.47959e+01  2.52950e+01             
       H -7.51614e+01 -1.43512e+01  2.48904e+01             
       H -7.43260e+01 -1.45026e+01  2.62074e+01             
       O -6.79908e+01 -1.93907e+01  2.30180e+01             
       H -4.70226e+01 -9.62733e+00  3.93285e+01             
       H -6.81000e+01 -1.84213e+01  2.32389e+01             
       O -6.86336e+01 -1.75856e+01  5.12711e+01             
       H -6.81965e+01 -1.72114e+01  5.20597e+01             
       H -6.95979e+01 -1.76077e+01  5.14577e+01             
       O -6.61728e+01 -1.50216e+01  7.17430e+01             
       H -6.68777e+01 -1.45955e+01  7.10754e+01             
       H -6.53286e+01 -1.45685e+01  7.19501e+01             
192                                                         
# CELL(abcABC):   12.41850    12.41850    12.41850    90.00000    90.00000    90.00000  Step:      200000  Bead:       0 x_centroid{angstrom}  cell{angstrom}   
       O -8.78610e+01 -1.49300e+01  6.49028e+01             
       H -8.76001e+01 -1.44281e+01  6.41144e+01             
       H -8.70429e+01 -1.49407e+01  6.54999e+01             
       O -7.99757e+01 -1.27997e+01  6.18592e+01             
       H -7.24306e+01 -2.14249e+01  5.79645e+01             
       H -7.95679e+01 -1.35183e+01  6.13169e+01             
       O -7.95590e+01 -2.38536e+01  5.69718e+01             
       H -7.92773e+01 -1.21610e+01  5.63878e+01             
       H -7.99391e+01 -2.43545e+01  5.76940e+01             
       O -6.50891e+01 -2.27439e+01  5.85600e+01             
       H -6.57804e+01 -2.29202e+01  5.79259e+01             
       H -6.47345e+01 -2.36428e+01  5.87817e+01             
       O -6.57024e+01 -2.36586e+01  5.39051e+01             
       H -6.65000e+01 -2.31442e+01  5.40194e+01             
       H -6.57356e+01 -2.40407e+01  5.30392e+01             
       O -6.95117e+01 -2.44881e+01  7.10037e+01             
       H -6.98696e+01 -2.36072e+01  7.09637e+01             
       H -6.99031e+01 -2.47649e+01  7.18647e+01             
       O -8.04047e+01 -2.94816e+01  5.19204e+01             
       H -8.02876e+01 -2.94622e+01  5.28858e+01             
       H -7.27768e+01 -3.48675e+00  6.06114e+01             
       O -6.34041e+01 -1.74072e+01  7.48854e+01             
       H -6.36983e+01 -1.69214e+01  7.56522e+01             
       H -6.41580e+01 -3.00750e+01  7.43710e+01             
       O -7.99361e+01 -6.88166e+00  5.07644e+01             
       H -7.93680e+01 -7.61362e+00  5.12085e+01             
       H -8.08217e+01 -7.22977e+00  5.04140e+01             
       O -7.70872e+01 -2.56040e+01  5.93556e+01             
       H -7.75572e+01 -2.61083e+01  6.00298e+01             
       H -7.72498e+01 -2.59528e+01  5.84813e+01             
       O -7.98695e+01 -7.92956e+00  6.68549e+01             
       H -7.99911e+01 -8.59468e+00  6.61474e+01             
       H -8.05280e+01 -8.29445e+00  6.74805e+01             
       O -7.58530e+01 -1.13913e+01  4.93083e+01             
       H -7.60616e+01 -1.05951e+01  4.99183e+01             
       H -6.46760e+01 -1.29860e+01  5.55835e+01             
       O -7.26259e+01 -3.19469e+01  4.82143e+01             
       H -7.18182e+01 -3.16622e+01  4.85976e+01             
       H -7.10187e+01 -2.93944e+01  6.39994e+01             
       O -8.01354e+01 -2.24199e+01  4.99561e+01             
       H -7.98601e+01 -2.33062e+01  4.97313e+01             
       H -8.02378e+01 -2.24577e+01  5.08999e+01             
       O -6.17608e+01 -2.58332e+01  6.27035e+01             
       H -6.21676e+01 -2.52093e+01  6.20221e+01             
       H -6.14305e+01 -2.65521e+01  6.21455e+01             
       O -7.86403e+01 -1.27961e+01  6.43775e+01             
       H -7.90486e+01 -1.30089e+01  6.35511e+01             
       H -7.93613e+01 -1.29179e+01  6.50441e+01             
       O -7.84285e+01 -8.72816e+00  4.81225e+01             
       H -7.79528e+01 -2.17768e+01  4.75078e+01             
       H -7.89599e+01 -9.20031e+00  4.88179e+01             
       O -8.04709e+01 -2.82163e+01  4.66095e+01             
       H -8.08231e+01 -2.75583e+01  4.59926e+01             
       H -8.04937e+01 -2.89976e+01  4.61275e+01             
       O -8.33738e+01 -1.43463e+01  6.55641e+01             
       H -8.31065e+01 -1.49892e+01  6.48128e+01             
       H -8.42008e+01 -1.46614e+01  6.59574e+01             
       O -7.04405e+01  3.44128e+00  5.15756e+01             
       H -6.31493e+01 -2.20416e+01  5.18788e+01             
       H -7.06851e+01  4.40012e+00  5.17691e+01             
       O -7.37654e+01 -1.98707e+01  6.81241e+01             
       H -7.43236e+01 -2.38630e+01  5.59399e+01             
       H -8.65841e+01 -1.97388e+01  6.89620e+01             
       O -7.12618e+01 -2.94594e+01  5.83774e+01             
       H -7.19692e+01 -3.01227e+01  5.83834e+01             
       H -7.08897e+01 -2.93067e+01  5.92324e+01             
       O -7.80666e+01 -1.82150e+01  6.11736e+01             
       H -7.87474e+01 -1.87858e+01  6.16030e+01             
       H -7.79698e+01 -1.87312e+01  6.03521e+01             
       O -7.41026e+01 -5.07559e+01  5.87390e+01             
       H -7.50202e+01 -5.05385e+01  5.86850e+01             
       H -7.37397e+01 -5.00315e+01  7.16930e+01             
       O -7.40188e+01 -5.20870e+00  5.76607e+01             
       H -7.42347e+01 -4.73491e+00  5.84529e+01             
       H -7.45345e+01 -4.62129e+00  5.70479e+01             
       O -6.82712e+01 -2.29831e+01  6.50697e+01             
       H -6.91327e+01 -2.25286e+01  6.48094e+01             
       H -6.85092e+01 -2.39439e+01  6.53491e+01             
       O -7.87808e+01 -2.73284e+01  6.85308e+01             
       H -7.82958e+01 -2.77223e+01  6.93450e+01             
       H -7.96716e+01 -2.76624e+01  6.85911e+01             
       O -9.46876e+01 -1.92773e+01  4.89323e+01             
       H -9.44579e+01 -2.00474e+01  4.83905e+01             
       H -9.44787e+01 -1.84348e+01  4.84581e+01             
       O -6.32728e+01 -3.33704e+00  6.87636e+01             
       H -6.37507e+01 -3.59166e+00  6.79212e+01             
       H -6.34691e+01 -2.40826e+00  6.89686e+01             
       O -7.15988e+01 -9.42774e+00  5.64654e+01             
       H -7.06551e+01 -9.31471e+00  5.64330e+01             
       H -7.18551e+01 -1.00165e+01  4.33488e+01             
       O -6.61029e+01 -1.54413e+01  3.83111e+01             
       H -6.66954e+01 -1.60386e+01  3.87494e+01             
       H -7.83806e+01 -1.47363e+01  3.89105e+01             
       O -6.32521e+01 -2.21276e+01  2.93837e+01             
       H -6.36712e+01 -2.12588e+01  2.96334e+01             
       H -6.40246e+01 -2.26761e+01  2.91373e+01             
       O -7.25278e+01 -2.69695e+01  4.42258e+01             
       H -7.21511e+01 -2.77706e+01  4.45990e+01             
       H -7.30999e+01 -2.65425e+01  5.73361e+01             
       O -6.55812e+01 -1.89428e+01  4.49145e+01             
       H -7.66844e+01 -1.61583e+01  4.54590e+01             
       H -6.50226e+01 -1.91168e+01  4.41543e+01             
       O -6.90616e+01 -3.04914e+01  5.69268e+01             
       H -6.87570e+01 -3.11909e+01  5.75239e+01             
       H -6.98971e+01 -3.01217e+01  5.72441e+01             
       O -6.31208e+01 -2.09090e+01  4.57275e+01             
       H -6.38350e+01 -2.15680e+01  4.58503e+01             
       H -6.35787e+01 -2.00639e+01  4.59482e+01             
       O -6.45570e+01 -3.19375e+01  5.50488e+01             
       H -6.53611e+01 -3.22345e+01  5.45664e+01             
       H -6.42067e+01 -3.11336e+01  5.46120e+01             
       O -7.16316e+01 -1.10453e+01  6.22977e+01             
       H -7.22714e+01 -1.11523e+01  6.15745e+01             
       H -7.19974e+01 -1.14862e+01  6.30962e+01             
       O -6.08974e+01  9.41224e+00  7.89277e+01             
       H -6.07112e+01  9.68373e+00  7.98561e+01             
       H -6.06594e+01  8.46939e+00  7.88661e+01             
       O -7.03687e+01 -2.87942e+01  6.37946e+01             
       H -8.02681e+01 -3.04991e+01  5.15284e+01             
       H -6.94878e+01 -2.91101e+01  6.41018e+01             
       O -7.29753e+01 -2.15927e+01  5.88202e+01             
       H -6.55659e+01 -1.79622e+01  4.50119e+01             
       H -7.39085e+01 -2.14148e+01  5.84657e+01             
       O -6.42181e+01 -1.30770e+01  5.64771e+01             
       H -7.11859e+01 -9.32432e+00  5.11027e+01             
       H -6.34434e+01 -1.24201e+01  5.64614e+01             
       O -6.97099e+01 -2.89736e+01  6.11209e+01             
       H -8.25756e+01 -2.88100e+01  7.44254e+01             
       H -6.85010e+01 -1.29604e+01  6.19037e+01             
       O -9.67510e+01 -1.85310e+01  6.43623e+01             
       H -9.67571e+01 -1.85639e+01  6.53046e+01             
       H -9.76097e+01 -1.88339e+01  6.40267e+01             
       O -7.57531e+01 -3.40423e+01  5.10846e+01             
       H -7.50532e+01 -3.34278e+01  5.10434e+01             
       H -7.31051e+01 -2.05621e+01  6.82764e+01             
       O -7.75623e+01 -1.63841e+01  4.58682e+01             
       H -7.74901e+01 -1.63505e+01  4.68817e+01             
       H -8.97298e+01 -2.10017e+01  2.66667e+01             
       O -8.52685e+01 -2.33938e+01  5.44589e+01             
       H -8.61364e+01 -2.29562e+01  5.42718e+01             
       H -8.50919e+01 -2.38746e+01  5.36171e+01             
       O -7.41092e+01 -2.95704e+01  4.80763e+01             
       H -7.45647e+01 -2.93546e+01  4.89267e+01             
       H -7.34829e+01 -3.03419e+01  4.80700e+01             
       O -5.68026e+01 -2.62588e+01  5.64814e+01             
       H -5.76211e+01 -1.40115e+01  5.59958e+01             
       H -5.70362e+01 -2.55930e+01  5.71674e+01             
       O -6.09748e+01 -1.13759e+01  6.01089e+01             
       H -4.94011e+01 -1.08754e+01  6.03173e+01             
       H -6.04524e+01 -1.06408e+01  5.96424e+01             
       O -7.23068e+01 -2.60548e+00  6.07426e+01             
       H -7.23447e+01 -3.26460e+01  4.75096e+01             
       H -7.66076e+01  4.79397e-01  4.90448e+01             
       O -7.41300e+01 -1.95525e+01  5.05203e+01             
       H -7.37007e+01 -1.96885e+01  4.96556e+01             
       H -7.49318e+01 -1.89613e+01  5.04150e+01             
       O -8.00045e+01 -1.75661e+01  4.22411e+01             
       H -7.98841e+01 -3.08823e+01  4.19567e+01             
       H -8.06319e+01 -1.75655e+01  4.29767e+01             
       O -8.21678e+01 -2.21956e+01  6.07222e+01             
       H -8.30299e+01 -2.23482e+01  6.11649e+01             
       H -8.14944e+01 -2.22728e+01  6.14713e+01             
       O -7.23730e+01 -2.46539e+01  6.45103e+01             
       H -7.31276e+01 -2.50372e+01  6.40483e+01             
       H -7.16938e+01 -2.53847e+01  6.46607e+01             
       O -8.73784e+01 -2.35548e+01  4.41599e+01             
       H -8.78668e+01 -2.29019e+01  5.59926e+01             
       H -8.16718e+01 -4.05912e+01  4.84465e+01             
       O -6.88308e+01 -2.17567e+01  6.90284e+01             
       H -6.83340e+01 -2.12697e+01  6.97362e+01             
       H -6.83667e+01 -2.26012e+01  6.90100e+01             
       O -7.02778e+01 -2.56686e+01  6.12781e+01             
       H -7.06351e+01 -2.49121e+01  6.17755e+01             
       H -7.09115e+01 -2.63887e+01  6.14301e+01             
       O -9.25696e+01 -1.99111e+01  5.85989e+01             
       H -9.16710e+01 -1.97519e+01  5.82431e+01             
       H -9.21930e+01 -2.03875e+01  5.93833e+01             
       O -6.63578e+01 -2.70506e+01  4.82203e+01             
       H -6.62955e+01 -2.75385e+01  4.91198e+01             
       H -6.69197e+01 -2.76464e+01  4.76646e+01             
       O -8.09405e+01 -1.31988e+01  2.88289e+01             
       H -8.07059e+01 -1.33161e+01  2.97602e+01             
       H -8.18493e+01 -1.35800e+01  2.87055e+01             
       O -7.80847e+01 -2.08481e+01  2.72113e+01             
       H -6.01074e+01 -1.45039e+01  4.75761e+01             
       H -7.85628e+01 -2.16908e+01  2.73285e+01             
       O -8.43927e+01 -1.78640e+01  5.47458e+01             
       H -8.49481e+01 -1.85395e+01  5.52069e+01             
       H -8.37785e+01 -1.75989e+01  5.54432e+01             
       O -7.70446e+01 -1.66150e+01  7.89328e+01             
       H -7.79950e+01 -1.66854e+01  7.91090e+01             
       H -7.68549e+01 -1.58779e+01  7.82941e+01             
