192                                                         
# CELL(abcABC):   12.41850    12.41850    12.41850    90.00000    90.00000    90.00000  Step:           0  Bead:       0 x_centroid{angstrom}  cell{angstrom}   
       O -7.44621e+01 -1.02335e+01  6.44379e+01             
       H -7.48271e+01 -9.92951e+00  6.35782e+01             
       H -7.38240e+01 -1.09180e+01  6.41256e+01             
       O -6.49397e+01 -8.30659e+00  5.94051e+01             
       H -6.10930e+01 -1.93539e+01  5.06766e+01             
       H -6.44148e+01 -8.55827e+00  6.01847e+01             
       O -6.67673e+01 -2.35845e+01  4.97152e+01             
       H -6.61552e+01 -1.15329e+01  5.03555e+01             
       H -6.64792e+01 -2.38324e+01  4.88208e+01             
       O -5.50984e+01 -2.16475e+01  5.18333e+01             
       H -5.48872e+01 -2.11671e+01  5.26305e+01             
       H -5.44302e+01 -2.23027e+01  5.18153e+01             
       O -5.24432e+01 -1.99240e+01  5.03416e+01             
       H -5.27054e+01 -1.90079e+01  5.04282e+01             
       H -5.23470e+01 -2.02364e+01  5.12659e+01             
       O -5.62649e+01 -1.80254e+01  6.35440e+01             
       H -5.69181e+01 -1.73130e+01  6.36973e+01             
       H -5.67563e+01 -1.86662e+01  6.29173e+01             
       O -6.49764e+01 -2.05832e+01  4.39498e+01             
       H -6.48651e+01 -1.99608e+01  4.46416e+01             
       H -5.60688e+01  1.07388e+00  5.05107e+01             
       O -4.98338e+01 -1.39276e+01  6.71859e+01             
       H -5.03814e+01 -1.31937e+01  6.75527e+01             
       H -4.91792e+01 -2.66559e+01  6.78615e+01             
       O -7.03180e+01 -7.83210e+00  4.02278e+01             
       H -7.11400e+01 -7.66130e+00  3.97710e+01             
       H -6.98919e+01 -6.95663e+00  4.02493e+01             
       O -6.40417e+01 -2.27437e+01  5.39438e+01             
       H -6.39152e+01 -2.33301e+01  5.47477e+01             
       H -6.31844e+01 -2.29014e+01  5.34647e+01             
       O -6.95662e+01 -5.82767e+00  5.78960e+01             
       H -7.01476e+01 -5.50135e+00  5.85842e+01             
       H -6.86868e+01 -5.48693e+00  5.81531e+01             
       O -6.28050e+01 -9.64402e+00  4.51067e+01             
       H -6.23605e+01 -8.94228e+00  4.56116e+01             
       H -5.60183e+01 -1.03408e+01  4.45605e+01             
       O -5.91471e+01 -2.93573e+01  4.37911e+01             
       H -5.84026e+01 -2.96689e+01  4.42818e+01             
       H -5.83722e+01 -2.58194e+01  5.79029e+01             
       O -6.89454e+01 -2.05672e+01  4.67538e+01             
       H -6.92046e+01 -1.98101e+01  4.61776e+01             
       H -6.83296e+01 -2.01755e+01  4.73437e+01             
       O -5.04678e+01 -2.39305e+01  5.97560e+01             
       H -5.05594e+01 -2.32166e+01  5.91085e+01             
       H -4.95135e+01 -2.40359e+01  5.98568e+01             
       O -6.36452e+01 -9.97177e+00  6.16973e+01             
       H -6.44683e+01 -1.00285e+01  6.21352e+01             
       H -6.35878e+01 -1.07072e+01  6.10373e+01             
       O -6.75509e+01 -9.34352e+00  4.34649e+01             
       H -6.67128e+01 -2.13628e+01  4.37293e+01             
       H -6.80622e+01 -8.60174e+00  4.31150e+01             
       O -6.58347e+01 -2.40836e+01  4.00388e+01             
       H -6.50587e+01 -2.36838e+01  4.04786e+01             
       H -6.56104e+01 -2.48745e+01  3.95239e+01             
       O -7.03641e+01 -1.35592e+01  5.09530e+01             
       H -6.97487e+01 -1.40171e+01  5.15248e+01             
       H -7.01073e+01 -1.26363e+01  5.10377e+01             
       O -6.51787e+01  8.88632e+00  4.50112e+01             
       H -4.61952e+01 -2.16424e+01  4.62290e+01             
       H -6.44908e+01  9.50904e+00  4.53069e+01             
       O -6.08562e+01 -1.73880e+01  5.90442e+01             
       H -6.21574e+01 -1.83408e+01  5.44693e+01             
       H -7.23374e+01 -1.72762e+01  5.93262e+01             
       O -5.75027e+01 -2.85880e+01  5.39582e+01             
       H -5.80634e+01 -2.86839e+01  5.47358e+01             
       H -5.76631e+01 -2.76240e+01  5.37734e+01             
       O -6.84022e+01 -1.47360e+01  5.71937e+01             
       H -6.77341e+01 -1.40557e+01  5.72792e+01             
       H -6.78882e+01 -1.54335e+01  5.68127e+01             
       O -5.88550e+01 -4.13606e+01  5.16687e+01             
       H -5.85984e+01 -4.12163e+01  5.26267e+01             
       H -5.87237e+01 -4.05553e+01  6.35840e+01             
       O -6.25387e+01 -3.99997e+00  4.88158e+01             
       H -6.34727e+01 -3.98694e+00  4.84899e+01             
       H -6.24775e+01 -3.30476e+00  4.94700e+01             
       O -5.73135e+01 -2.02602e+01  5.55228e+01             
       H -5.78542e+01 -1.96304e+01  5.59769e+01             
       H -5.75501e+01 -2.03246e+01  5.46262e+01             
       O -6.44923e+01 -2.04299e+01  6.55021e+01             
       H -6.36017e+01 -2.00161e+01  6.55101e+01             
       H -6.43524e+01 -2.13625e+01  6.58610e+01             
       O -7.92815e+01 -1.40258e+01  4.82787e+01             
       H -7.89986e+01 -1.39566e+01  4.91657e+01             
       H -8.02028e+01 -1.43206e+01  4.82102e+01             
       O -5.82655e+01 -4.67107e+00  6.00680e+01             
       H -5.78788e+01 -3.80452e+00  6.03608e+01             
       H -5.80869e+01 -5.31250e+00  6.07578e+01             
       O -6.02047e+01 -1.17043e+01  4.78555e+01             
       H -5.96833e+01 -1.21985e+01  4.71914e+01             
       H -5.97110e+01 -1.09103e+01  3.53773e+01             
       O -5.53382e+01 -1.17638e+01  2.99513e+01             
       H -5.48731e+01 -1.17047e+01  2.91097e+01             
       H -6.77453e+01 -1.08042e+01  3.01888e+01             
       O -5.07637e+01 -1.57169e+01  2.82064e+01             
       H -5.04831e+01 -1.51233e+01  2.89255e+01             
       H -5.04050e+01 -1.66428e+01  2.82352e+01             
       O -6.14558e+01 -2.03322e+01  3.44466e+01             
       H -6.20926e+01 -2.03445e+01  3.51978e+01             
       H -6.13550e+01 -1.93553e+01  4.67544e+01             
       O -5.06715e+01 -1.42857e+01  3.38603e+01             
       H -6.31374e+01 -1.14496e+01  4.44500e+01             
       H -5.06255e+01 -1.33270e+01  3.41460e+01             
       O -5.99558e+01 -2.44371e+01  5.38912e+01             
       H -6.00251e+01 -2.38117e+01  5.45714e+01             
       H -6.06602e+01 -2.50950e+01  5.39376e+01             
       O -5.01025e+01 -1.45135e+01  3.83299e+01             
       H -5.02096e+01 -1.48554e+01  3.92490e+01             
       H -4.95461e+01 -1.37395e+01  3.82601e+01             
       O -5.28589e+01 -2.62110e+01  5.08234e+01             
       H -5.31888e+01 -2.68587e+01  5.15074e+01             
       H -5.19803e+01 -2.64086e+01  5.05675e+01             
       O -6.13175e+01 -6.28909e+00  5.62740e+01             
       H -6.12457e+01 -7.23872e+00  5.61039e+01             
       H -6.21042e+01 -6.14948e+00  5.68725e+01             
       O -5.15169e+01  6.58532e+00  7.00562e+01             
       H -5.16340e+01  6.45837e+00  7.10034e+01             
       H -5.19916e+01  7.43231e+00  6.99255e+01             
       O -5.80149e+01 -2.52943e+01  5.86422e+01             
       H -6.46601e+01 -2.01611e+01  4.31820e+01             
       H -5.75520e+01 -2.45678e+01  5.82146e+01             
       O -6.03063e+01 -1.91470e+01  5.12982e+01             
       H -5.03698e+01 -1.47970e+01  3.46111e+01             
       H -6.01680e+01 -1.81867e+01  5.11745e+01             
       O -5.63053e+01 -1.06274e+01  4.54586e+01             
       H -6.55272e+01 -3.15072e+00  4.41885e+01             
       H -5.63348e+01 -9.81347e+00  4.59734e+01             
       O -5.74778e+01 -2.59334e+01  5.37653e+01             
       H -6.92508e+01 -2.55739e+01  6.68106e+01             
       H -5.32106e+01 -7.73741e+00  5.97710e+01             
       O -8.51927e+01 -1.47357e+01  5.69023e+01             
       H -8.59488e+01 -1.49034e+01  5.74757e+01             
       H -8.48547e+01 -1.56384e+01  5.66412e+01             
       O -5.94537e+01 -3.44642e+01  4.59967e+01             
       H -6.01159e+01 -3.37651e+01  4.62287e+01             
       H -6.12219e+01 -1.68088e+01  5.97551e+01             
       O -6.35551e+01 -1.21346e+01  4.38556e+01             
       H -6.44676e+01 -1.22583e+01  4.41693e+01             
       H -7.87326e+01 -1.76044e+01  2.13964e+01             
       O -7.16490e+01 -2.24673e+01  4.33609e+01             
       H -7.18591e+01 -2.24431e+01  4.43058e+01             
       H -7.10056e+01 -2.17712e+01  4.32571e+01             
       O -5.79715e+01 -2.22168e+01  3.62725e+01             
       H -5.70350e+01 -2.22355e+01  3.60587e+01             
       H -5.78887e+01 -2.23908e+01  3.72401e+01             
       O -4.48468e+01 -2.69511e+01  4.80966e+01             
       H -4.50055e+01 -1.38994e+01  4.74165e+01             
       H -4.50651e+01 -2.65614e+01  4.89607e+01             
       O -5.46949e+01 -6.96443e+00  5.35144e+01             
       H -4.13138e+01 -7.10028e+00  5.31768e+01             
       H -5.50994e+01 -6.51273e+00  5.26897e+01             
       O -5.69153e+01  1.29329e+00  5.08747e+01             
       H -5.98172e+01 -3.00490e+01  4.38825e+01             
       H -6.35752e+01  3.26134e+00  4.47098e+01             
       O -6.50949e+01 -1.63845e+01  4.80493e+01             
       H -6.52315e+01 -1.66116e+01  4.90219e+01             
       H -6.56471e+01 -1.56011e+01  4.78686e+01             
       O -6.23271e+01 -6.93924e+00  3.69838e+01             
       H -6.24420e+01 -1.83576e+01  3.69086e+01             
       H -6.31491e+01 -7.25337e+00  3.73634e+01             
       O -6.73425e+01 -1.67897e+01  5.47101e+01             
       H -6.71246e+01 -1.77858e+01  5.46076e+01             
       H -6.82571e+01 -1.66153e+01  5.45159e+01             
       O -6.11580e+01 -2.09766e+01  5.44339e+01             
       H -6.07140e+01 -2.17181e+01  5.49006e+01             
       H -6.07762e+01 -2.12488e+01  5.36317e+01             
       O -7.47697e+01 -1.83651e+01  4.11225e+01             
       H -7.40281e+01 -1.87772e+01  5.31247e+01             
       H -7.07318e+01 -3.79303e+01  4.16089e+01             
       O -5.50414e+01 -2.03540e+01  6.18329e+01             
       H -5.55120e+01 -2.08252e+01  6.25392e+01             
       H -5.41158e+01 -2.05354e+01  6.20318e+01             
       O -5.76913e+01 -1.94060e+01  4.92256e+01             
       H -5.85910e+01 -1.94339e+01  4.95513e+01             
       H -5.76266e+01 -2.02945e+01  4.87784e+01             
       O -7.83206e+01 -1.58465e+01  5.26518e+01             
       H -7.73587e+01 -1.58937e+01  5.29170e+01             
       H -7.89456e+01 -1.59547e+01  5.34167e+01             
       O -5.37943e+01 -2.35466e+01  4.71805e+01             
       H -5.36686e+01 -2.26112e+01  4.71268e+01             
       H -5.47081e+01 -2.35672e+01  4.69355e+01             
       O -7.28496e+01 -1.26071e+01  2.56318e+01             
       H -7.24487e+01 -1.24481e+01  2.47704e+01             
       H -7.22344e+01 -1.31986e+01  2.61015e+01             
       O -6.69453e+01 -1.82431e+01  2.17118e+01             
       H -4.42539e+01 -1.05236e+01  3.91721e+01             
       H -6.70685e+01 -1.78239e+01  2.25558e+01             
       O -6.59689e+01 -1.75158e+01  5.05160e+01             
       H -6.59435e+01 -1.68902e+01  5.12528e+01             
       H -6.68937e+01 -1.78098e+01  5.04295e+01             
       O -6.60727e+01 -1.25907e+01  6.92699e+01             
       H -6.67525e+01 -1.22029e+01  6.86978e+01             
       H -6.61616e+01 -1.21903e+01  7.01597e+01             
192                                                         
# CELL(abcABC):   12.41850    12.41850    12.41850    90.00000    90.00000    90.00000  Step:      200000  Bead:       0 x_centroid{angstrom}  cell{angstrom}   
       O -9.21967e+01 -1.55379e+01  7.10686e+01             
       H -9.26553e+01 -1.49148e+01  7.16567e+01             
       H -9.14717e+01 -1.51055e+01  7.06048e+01             
       O -8.06450e+01 -1.35646e+01  6.74374e+01             
       H -7.51757e+01 -2.33595e+01  5.93366e+01             
       H -7.98728e+01 -1.37210e+01  6.80970e+01             
       O -8.28693e+01 -3.02018e+01  5.83573e+01             
       H -8.38160e+01 -1.80224e+01  5.83232e+01             
       H -8.24336e+01 -3.06637e+01  5.91206e+01             
       O -7.67906e+01 -2.00927e+01  5.90156e+01             
       H -7.69734e+01 -2.02890e+01  5.80928e+01             
       H -7.75008e+01 -1.94827e+01  5.93162e+01             
       O -7.07802e+01 -2.49311e+01  5.43247e+01             
       H -6.98611e+01 -2.52795e+01  5.46346e+01             
       H -7.05526e+01 -2.42201e+01  5.36067e+01             
       O -7.32229e+01 -1.41215e+01  7.40783e+01             
       H -7.37193e+01 -1.44225e+01  7.48989e+01             
       H -7.38893e+01 -1.40743e+01  7.33688e+01             
       O -7.85989e+01 -2.73852e+01  5.29297e+01             
       H -7.76940e+01 -2.73382e+01  5.31280e+01             
       H -7.29318e+01 -5.01668e-01  5.71367e+01             
       O -6.33868e+01 -1.74611e+01  7.49062e+01             
       H -6.35854e+01 -1.83049e+01  7.45991e+01             
       H -6.31805e+01 -2.99606e+01  7.58801e+01             
       O -9.01903e+01 -1.56882e+01  4.94284e+01             
       H -9.08505e+01 -1.60941e+01  4.88379e+01             
       H -8.95445e+01 -1.63841e+01  4.96289e+01             
       O -7.71878e+01 -3.25615e+01  6.23059e+01             
       H -7.69314e+01 -3.27294e+01  6.13838e+01             
       H -7.80874e+01 -3.22224e+01  6.24256e+01             
       O -8.16676e+01 -7.93791e+00  6.82297e+01             
       H -8.14261e+01 -7.84840e+00  6.91645e+01             
       H -8.22986e+01 -7.23540e+00  6.80647e+01             
       O -7.77674e+01 -1.32639e+01  5.02465e+01             
       H -7.83662e+01 -1.31664e+01  5.10317e+01             
       H -7.03313e+01 -1.68366e+01  5.15503e+01             
       O -7.10422e+01 -3.79123e+01  4.81323e+01             
       H -7.18797e+01 -3.84692e+01  4.83933e+01             
       H -7.17794e+01 -3.42860e+01  6.50830e+01             
       O -8.46687e+01 -2.40657e+01  5.63289e+01             
       H -8.50563e+01 -2.32766e+01  5.59583e+01             
       H -8.42032e+01 -2.44490e+01  5.55479e+01             
       O -6.35125e+01 -2.77582e+01  6.56200e+01             
       H -6.32102e+01 -2.73014e+01  6.63871e+01             
       H -6.32755e+01 -2.86453e+01  6.58928e+01             
       O -7.40916e+01 -2.02205e+01  7.23637e+01             
       H -7.49930e+01 -1.98476e+01  7.20560e+01             
       H -7.35832e+01 -2.01646e+01  7.15097e+01             
       O -8.04235e+01 -1.00803e+01  5.50697e+01             
       H -8.10542e+01 -2.30983e+01  5.54715e+01             
       H -8.08802e+01 -9.21623e+00  5.51003e+01             
       O -8.06147e+01 -2.70294e+01  5.10786e+01             
       H -7.99153e+01 -2.71677e+01  5.17274e+01             
       H -8.09725e+01 -2.61497e+01  5.12679e+01             
       O -8.79187e+01 -1.80050e+01  5.37933e+01             
       H -8.72600e+01 -1.84941e+01  5.31849e+01             
       H -8.73975e+01 -1.77558e+01  5.46328e+01             
       O -7.54694e+01  3.35786e+00  5.15362e+01             
       H -6.35459e+01 -2.40329e+01  5.35301e+01             
       H -7.60616e+01  4.03199e+00  5.11822e+01             
       O -7.39828e+01 -2.25711e+01  6.16851e+01             
       H -7.65196e+01 -1.64483e+01  5.96544e+01             
       H -8.55152e+01 -2.27040e+01  6.20665e+01             
       O -7.01984e+01 -3.10177e+01  6.26125e+01             
       H -7.03534e+01 -3.19219e+01  6.30755e+01             
       H -7.09426e+01 -3.08618e+01  6.20288e+01             
       O -7.97084e+01 -1.73119e+01  6.68506e+01             
       H -8.03614e+01 -1.74755e+01  6.61417e+01             
       H -8.02841e+01 -1.69530e+01  6.76102e+01             
       O -7.69747e+01 -4.51135e+01  5.63491e+01             
       H -7.75740e+01 -4.55445e+01  5.57143e+01             
       H -7.62283e+01 -4.47465e+01  6.81753e+01             
       O -7.82193e+01 -1.01286e+01  5.94480e+01             
       H -7.74200e+01 -9.65232e+00  5.96841e+01             
       H -7.84623e+01 -1.09225e+01  5.99416e+01             
       O -7.39118e+01 -2.79131e+01  6.40205e+01             
       H -7.32811e+01 -2.74172e+01  6.45721e+01             
       H -7.47895e+01 -2.77465e+01  6.43692e+01             
       O -8.09857e+01 -2.64890e+01  7.28595e+01             
       H -8.08235e+01 -2.70126e+01  7.37020e+01             
       H -8.19878e+01 -2.62970e+01  7.28555e+01             
       O -9.28001e+01 -2.05697e+01  5.82087e+01             
       H -9.25035e+01 -1.98446e+01  5.88425e+01             
       H -9.23640e+01 -2.14085e+01  5.84790e+01             
       O -7.36548e+01 -4.23281e+00  7.14074e+01             
       H -7.35110e+01 -3.27106e+00  7.11912e+01             
       H -7.46049e+01 -4.33665e+00  7.16533e+01             
       O -7.78708e+01 -2.16148e+01  5.38184e+01             
       H -7.72030e+01 -2.18468e+01  5.31815e+01             
       H -7.79443e+01 -2.06449e+01  4.12362e+01             
       O -7.18037e+01 -1.14016e+01  3.79317e+01             
       H -7.15409e+01 -1.11368e+01  3.88422e+01             
       H -8.47889e+01 -1.21583e+01  3.81257e+01             
       O -6.83120e+01 -2.20647e+01  3.69513e+01             
       H -6.79707e+01 -2.28295e+01  3.65485e+01             
       H -6.91188e+01 -2.18949e+01  3.64279e+01             
       O -7.38994e+01 -2.18319e+01  4.25623e+01             
       H -7.47366e+01 -2.22309e+01  4.24946e+01             
       H -7.35818e+01 -2.13915e+01  5.40830e+01             
       O -6.55994e+01 -1.89857e+01  4.04145e+01             
       H -7.97908e+01 -2.01712e+01  4.92226e+01             
       H -6.48089e+01 -1.87106e+01  4.09434e+01             
       O -7.93483e+01 -2.44522e+01  6.07650e+01             
       H -8.01347e+01 -2.51386e+01  6.05977e+01             
       H -7.87332e+01 -2.48940e+01  6.13478e+01             
       O -6.48978e+01 -1.73205e+01  4.45693e+01             
       H -6.50874e+01 -1.82474e+01  4.42111e+01             
       H -6.58186e+01 -1.69403e+01  4.45640e+01             
       O -6.89825e+01 -2.92057e+01  5.63286e+01             
       H -6.84570e+01 -2.85840e+01  5.69225e+01             
       H -6.96221e+01 -2.96444e+01  5.68945e+01             
       O -8.09524e+01 -8.91739e+00  6.45308e+01             
       H -8.01020e+01 -9.09925e+00  6.49626e+01             
       H -8.07084e+01 -9.03716e+00  6.36434e+01             
       O -6.08480e+01  4.91434e+00  8.22333e+01             
       H -6.12568e+01  5.74706e+00  8.18828e+01             
       H -6.06350e+01  4.34664e+00  8.14812e+01             
       O -7.10574e+01 -3.48907e+01  6.50558e+01             
       H -7.89773e+01 -2.81957e+01  5.33009e+01             
       H -7.02135e+01 -3.44650e+01  6.50614e+01             
       O -7.47229e+01 -2.33366e+01  5.84587e+01             
       H -6.63045e+01 -1.85715e+01  4.09202e+01             
       H -7.37717e+01 -2.32145e+01  5.86348e+01             
       O -7.00253e+01 -1.63007e+01  5.22967e+01             
       H -7.50184e+01 -9.35898e+00  5.07399e+01             
       H -6.93908e+01 -1.56225e+01  5.18698e+01             
       O -7.60857e+01 -2.42279e+01  6.13886e+01             
       H -8.76569e+01 -2.37322e+01  7.40612e+01             
       H -6.77826e+01 -1.33594e+01  6.65595e+01             
       O -9.79384e+01 -2.05001e+01  6.51595e+01             
       H -9.88171e+01 -2.07902e+01  6.47146e+01             
       H -9.78064e+01 -1.96267e+01  6.48111e+01             
       O -7.64609e+01 -3.65903e+01  5.27455e+01             
       H -7.60277e+01 -3.73224e+01  5.22239e+01             
       H -7.39173e+01 -2.18649e+01  6.09784e+01             
       O -7.98390e+01 -1.92029e+01  4.91848e+01             
       H -8.07937e+01 -1.89833e+01  4.94948e+01             
       H -9.41111e+01 -2.36986e+01  2.61326e+01             
       O -8.78835e+01 -2.65242e+01  4.72449e+01             
       H -8.79350e+01 -2.62896e+01  4.63116e+01             
       H -8.82795e+01 -2.57168e+01  4.77279e+01             
       O -7.85294e+01 -3.59087e+01  4.45417e+01             
       H -7.91628e+01 -3.54256e+01  4.39107e+01             
       H -7.85950e+01 -3.55088e+01  4.54470e+01             
       O -6.17767e+01 -2.98799e+01  5.61713e+01             
       H -6.21445e+01 -1.70286e+01  5.69906e+01             
       H -6.09173e+01 -2.94240e+01  5.60635e+01             
       O -6.70565e+01 -1.17738e+01  6.55429e+01             
       H -5.37139e+01 -1.16275e+01  6.52888e+01             
       H -6.73651e+01 -1.11176e+01  6.61783e+01             
       O -7.31988e+01 -1.40075e+00  5.74857e+01             
       H -7.09755e+01 -3.72859e+01  4.89347e+01             
       H -7.78471e+01 -1.85081e+00  4.99462e+01             
       O -8.42228e+01 -2.34042e+01  5.88888e+01             
       H -8.42012e+01 -2.37313e+01  5.79265e+01             
       H -8.38962e+01 -2.41658e+01  5.94334e+01             
       O -7.59544e+01 -1.12474e+01  4.34763e+01             
       H -7.69195e+01 -2.35238e+01  4.36853e+01             
       H -7.54831e+01 -1.09604e+01  4.43227e+01             
       O -8.28519e+01 -2.15675e+01  7.24350e+01             
       H -8.23424e+01 -2.10936e+01  7.17469e+01             
       H -8.33194e+01 -2.23131e+01  7.18522e+01             
       O -7.27991e+01 -3.03418e+01  6.41849e+01             
       H -7.27913e+01 -3.01540e+01  6.32565e+01             
       H -7.31412e+01 -2.94557e+01  6.44993e+01             
       O -8.85261e+01 -1.73192e+01  4.71596e+01             
       H -8.90390e+01 -1.77161e+01  5.88738e+01             
       H -8.89517e+01 -3.70112e+01  4.97440e+01             
       O -7.24620e+01 -1.81146e+01  7.35869e+01             
       H -7.32489e+01 -1.86687e+01  7.32826e+01             
       H -7.25305e+01 -1.72039e+01  7.32579e+01             
       O -7.85631e+01 -2.62208e+01  5.67602e+01             
       H -7.84737e+01 -2.52938e+01  5.70522e+01             
       H -7.77357e+01 -2.65543e+01  5.63871e+01             
       O -9.14493e+01 -1.83553e+01  5.93873e+01             
       H -9.18471e+01 -1.86364e+01  6.02234e+01             
       H -9.17278e+01 -1.74109e+01  5.92362e+01             
       O -7.22428e+01 -2.81405e+01  5.58813e+01             
       H -7.21395e+01 -2.79145e+01  5.49033e+01             
       H -7.14951e+01 -2.87526e+01  5.59222e+01             
       O -8.76513e+01 -1.39167e+01  3.07817e+01             
       H -8.70771e+01 -1.41659e+01  3.15007e+01             
       H -8.79729e+01 -1.30102e+01  3.08967e+01             
       O -8.16716e+01 -2.44707e+01  2.66831e+01             
       H -6.01031e+01 -1.43458e+01  4.46228e+01             
       H -8.10112e+01 -2.42154e+01  2.74273e+01             
       O -8.30683e+01 -1.82251e+01  6.69684e+01             
       H -8.26577e+01 -1.74962e+01  6.65243e+01             
       H -8.35665e+01 -1.85937e+01  6.62363e+01             
       O -8.45467e+01 -1.44852e+01  7.81886e+01             
       H -8.36878e+01 -1.48266e+01  7.78645e+01             
       H -8.43413e+01 -1.36125e+01  7.86746e+01             
