192                                                         
# CELL(abcABC):   12.41850    12.41850    12.41850    90.00000    90.00000    90.00000  Step:           0  Bead:       0 x_centroid{angstrom}  cell{angstrom}   
       O -7.66604e+01 -1.19035e+01  6.42560e+01             
       H -7.68790e+01 -1.13254e+01  6.35292e+01             
       H -7.57255e+01 -1.22424e+01  6.42190e+01             
       O -6.87917e+01 -8.31739e+00  6.10025e+01             
       H -6.37948e+01 -1.87335e+01  5.26091e+01             
       H -6.85444e+01 -8.10909e+00  6.19328e+01             
       O -6.82303e+01 -2.38177e+01  5.10296e+01             
       H -6.78218e+01 -1.10262e+01  5.18561e+01             
       H -6.84913e+01 -2.47279e+01  5.13173e+01             
       O -5.52698e+01 -2.23166e+01  5.34683e+01             
       H -5.61286e+01 -2.26213e+01  5.37953e+01             
       H -5.47503e+01 -2.28942e+01  5.39616e+01             
       O -5.55409e+01 -2.03257e+01  5.11593e+01             
       H -5.58393e+01 -1.94631e+01  5.14626e+01             
       H -5.56388e+01 -2.09504e+01  5.18778e+01             
       O -5.89355e+01 -1.88190e+01  6.40969e+01             
       H -5.96391e+01 -1.82016e+01  6.41713e+01             
       H -5.90407e+01 -1.93868e+01  6.33232e+01             
       O -6.65890e+01 -2.12289e+01  4.51602e+01             
       H -6.66293e+01 -2.03349e+01  4.53592e+01             
       H -5.75501e+01  1.67192e+00  5.13935e+01             
       O -5.10115e+01 -1.42010e+01  6.78182e+01             
       H -5.15586e+01 -1.34900e+01  6.81789e+01             
       H -5.08616e+01 -2.71347e+01  6.86039e+01             
       O -7.09614e+01 -8.60165e+00  4.10291e+01             
       H -7.15986e+01 -8.86044e+00  4.17196e+01             
       H -7.11648e+01 -7.70697e+00  4.07007e+01             
       O -6.56480e+01 -2.41584e+01  5.41073e+01             
       H -6.51674e+01 -2.45136e+01  5.48585e+01             
       H -6.51174e+01 -2.42744e+01  5.33334e+01             
       O -7.04906e+01 -4.22129e+00  5.85684e+01             
       H -7.07155e+01 -3.79120e+00  5.94368e+01             
       H -6.95697e+01 -4.54439e+00  5.87450e+01             
       O -6.43513e+01 -9.07781e+00  4.70108e+01             
       H -6.42458e+01 -8.97072e+00  4.79860e+01             
       H -5.69350e+01 -1.19381e+01  4.79008e+01             
       O -6.04672e+01 -2.97151e+01  4.40236e+01             
       H -5.95681e+01 -2.96470e+01  4.43864e+01             
       H -5.86834e+01 -2.57093e+01  6.06215e+01             
       O -7.03397e+01 -1.96423e+01  4.58727e+01             
       H -6.94676e+01 -1.93012e+01  4.55827e+01             
       H -7.08707e+01 -1.88344e+01  4.59374e+01             
       O -5.04269e+01 -2.32607e+01  5.78662e+01             
       H -5.08378e+01 -2.25366e+01  5.84195e+01             
       H -4.94670e+01 -2.32387e+01  5.79577e+01             
       O -6.59064e+01 -1.06586e+01  6.20978e+01             
       H -6.66835e+01 -1.09931e+01  6.25110e+01             
       H -6.61329e+01 -1.09395e+01  6.11683e+01             
       O -6.85454e+01 -1.06581e+01  4.48644e+01             
       H -6.77998e+01 -2.24513e+01  4.50133e+01             
       H -6.91861e+01 -1.03847e+01  4.54914e+01             
       O -6.81008e+01 -2.56665e+01  4.05332e+01             
       H -6.72392e+01 -2.53497e+01  4.07828e+01             
       H -6.80175e+01 -2.66413e+01  4.05675e+01             
       O -7.16695e+01 -1.29048e+01  5.27922e+01             
       H -7.15952e+01 -1.27818e+01  5.37436e+01             
       H -7.11169e+01 -1.21648e+01  5.24496e+01             
       O -6.56173e+01  8.63783e+00  4.53364e+01             
       H -4.73342e+01 -2.11520e+01  4.66144e+01             
       H -6.46661e+01  8.43174e+00  4.53624e+01             
       O -6.30498e+01 -1.69001e+01  6.01194e+01             
       H -6.18747e+01 -2.00550e+01  5.57205e+01             
       H -7.45840e+01 -1.69770e+01  6.04405e+01             
       O -6.01479e+01 -2.78587e+01  5.41912e+01             
       H -6.03028e+01 -2.85831e+01  5.47623e+01             
       H -6.05013e+01 -2.71418e+01  5.47036e+01             
       O -6.79213e+01 -1.75523e+01  5.71548e+01             
       H -6.70657e+01 -1.70582e+01  5.72636e+01             
       H -6.83692e+01 -1.68927e+01  5.66515e+01             
       O -6.09775e+01 -4.16373e+01  5.20411e+01             
       H -6.08690e+01 -4.08751e+01  5.26074e+01             
       H -6.13228e+01 -4.11969e+01  6.37201e+01             
       O -6.53096e+01 -4.45223e+00  4.93856e+01             
       H -6.61308e+01 -4.35683e+00  4.88504e+01             
       H -6.53921e+01 -3.75926e+00  5.00357e+01             
       O -5.87679e+01 -2.18133e+01  5.65806e+01             
       H -5.80676e+01 -2.23698e+01  5.61989e+01             
       H -5.82749e+01 -2.10899e+01  5.70452e+01             
       O -6.47856e+01 -2.13929e+01  6.77867e+01             
       H -6.39509e+01 -2.09197e+01  6.74902e+01             
       H -6.50201e+01 -2.20393e+01  6.71312e+01             
       O -8.10867e+01 -1.35523e+01  4.55178e+01             
       H -8.09173e+01 -1.26067e+01  4.54602e+01             
       H -8.19024e+01 -1.35991e+01  4.60629e+01             
       O -5.91840e+01 -3.20954e+00  6.17643e+01             
       H -5.87712e+01 -3.18017e+00  6.26501e+01             
       H -6.01804e+01 -3.19959e+00  6.18429e+01             
       O -6.03526e+01 -1.19548e+01  4.80877e+01             
       H -6.01617e+01 -1.15346e+01  4.72557e+01             
       H -6.07872e+01 -1.13767e+01  3.62802e+01             
       O -5.68580e+01 -1.15951e+01  3.01649e+01             
       H -5.67379e+01 -1.25236e+01  2.99044e+01             
       H -6.89699e+01 -1.15138e+01  3.10708e+01             
       O -5.23930e+01 -1.58849e+01  2.86783e+01             
       H -5.18780e+01 -1.52312e+01  2.91451e+01             
       H -5.19953e+01 -1.67477e+01  2.86429e+01             
       O -6.41851e+01 -2.07912e+01  3.74342e+01             
       H -6.48491e+01 -2.15391e+01  3.75099e+01             
       H -6.45201e+01 -2.00407e+01  5.04393e+01             
       O -4.99391e+01 -1.36535e+01  3.49090e+01             
       H -6.41867e+01 -1.16223e+01  4.46271e+01             
       H -5.05729e+01 -1.32132e+01  3.43505e+01             
       O -6.18216e+01 -2.60605e+01  5.18673e+01             
       H -6.09243e+01 -2.57407e+01  5.21604e+01             
       H -6.22911e+01 -2.64223e+01  5.26115e+01             
       O -5.31839e+01 -1.46236e+01  3.87353e+01             
       H -5.28571e+01 -1.49883e+01  3.95639e+01             
       H -5.29637e+01 -1.37393e+01  3.86751e+01             
       O -5.54943e+01 -2.68900e+01  5.00274e+01             
       H -5.50620e+01 -2.64147e+01  4.93276e+01             
       H -5.46498e+01 -2.70625e+01  5.05799e+01             
       O -6.16547e+01 -7.10195e+00  5.75505e+01             
       H -6.25340e+01 -7.03827e+00  5.79665e+01             
       H -6.11304e+01 -7.53405e+00  5.81751e+01             
       O -5.16123e+01  6.11865e+00  7.11009e+01             
       H -5.11642e+01  6.89121e+00  7.15579e+01             
       H -5.22997e+01  6.44060e+00  7.05791e+01             
       O -5.77326e+01 -2.58904e+01  6.06361e+01             
       H -6.58070e+01 -2.13597e+01  4.46472e+01             
       H -5.75468e+01 -2.64396e+01  6.14256e+01             
       O -6.32108e+01 -1.82046e+01  5.31799e+01             
       H -4.92212e+01 -1.29864e+01  3.51150e+01             
       H -6.25525e+01 -1.77745e+01  5.26210e+01             
       O -5.65962e+01 -1.11064e+01  4.76298e+01             
       H -6.57110e+01 -3.03894e+00  4.58866e+01             
       H -5.67403e+01 -1.04077e+01  4.83368e+01             
       O -6.08200e+01 -2.52969e+01  5.53856e+01             
       H -7.34985e+01 -2.45994e+01  6.71904e+01             
       H -5.58362e+01 -7.83427e+00  6.03820e+01             
       O -8.74900e+01 -1.61571e+01  5.75293e+01             
       H -8.71457e+01 -1.58253e+01  5.83806e+01             
       H -8.67364e+01 -1.65298e+01  5.71340e+01             
       O -6.05827e+01 -3.36973e+01  4.70502e+01             
       H -6.02701e+01 -3.36416e+01  4.80119e+01             
       H -6.37318e+01 -1.68163e+01  6.08281e+01             
       O -6.50536e+01 -1.19288e+01  4.42637e+01             
       H -6.55857e+01 -1.17662e+01  4.50238e+01             
       H -7.82950e+01 -1.94710e+01  2.24770e+01             
       O -7.19961e+01 -2.40799e+01  4.55769e+01             
       H -7.17289e+01 -2.32953e+01  4.51109e+01             
       H -7.23305e+01 -2.46472e+01  4.48933e+01             
       O -6.12361e+01 -2.31192e+01  3.81863e+01             
       H -6.12976e+01 -2.21774e+01  3.84106e+01             
       H -6.02590e+01 -2.32055e+01  3.82046e+01             
       O -4.55378e+01 -2.79202e+01  5.17967e+01             
       H -4.59225e+01 -1.49437e+01  5.24494e+01             
       H -4.47748e+01 -2.74129e+01  5.14960e+01             
       O -5.59070e+01 -7.13962e+00  5.53362e+01             
       H -4.28293e+01 -6.87022e+00  5.60273e+01             
       H -5.53740e+01 -7.59723e+00  5.46819e+01             
       O -5.84905e+01  1.91560e+00  5.15030e+01             
       H -6.07912e+01 -3.06066e+01  4.42279e+01             
       H -6.43798e+01  4.19983e+00  4.65763e+01             
       O -6.74852e+01 -1.65403e+01  4.77812e+01             
       H -6.80977e+01 -1.61387e+01  4.84042e+01             
       H -6.69843e+01 -1.56735e+01  4.75540e+01             
       O -6.53507e+01 -6.26506e+00  3.89294e+01             
       H -6.55213e+01 -1.80518e+01  3.81924e+01             
       H -6.61523e+01 -6.46651e+00  3.93637e+01             
       O -6.96604e+01 -1.70938e+01  5.50602e+01             
       H -6.93779e+01 -1.80466e+01  5.50407e+01             
       H -7.04183e+01 -1.70183e+01  5.44786e+01             
       O -6.14683e+01 -2.29485e+01  5.39459e+01             
       H -6.16209e+01 -2.29738e+01  5.30061e+01             
       H -6.17995e+01 -2.21024e+01  5.42871e+01             
       O -7.45369e+01 -2.02714e+01  4.23731e+01             
       H -7.47391e+01 -1.94741e+01  5.43261e+01             
       H -7.41641e+01 -3.79773e+01  4.32191e+01             
       O -5.90528e+01 -2.08564e+01  6.18507e+01             
       H -5.81524e+01 -2.07341e+01  6.13916e+01             
       H -5.89535e+01 -2.16892e+01  6.23913e+01             
       O -6.17091e+01 -2.02902e+01  5.09626e+01             
       H -6.23670e+01 -2.03600e+01  5.02793e+01             
       H -6.09541e+01 -1.98151e+01  5.06306e+01             
       O -8.01010e+01 -1.59169e+01  5.35975e+01             
       H -7.91602e+01 -1.60756e+01  5.38089e+01             
       H -8.07877e+01 -1.61245e+01  5.42517e+01             
       O -5.38201e+01 -2.37599e+01  4.70007e+01             
       H -5.33187e+01 -2.29617e+01  4.69260e+01             
       H -5.47392e+01 -2.35868e+01  4.68771e+01             
       O -7.43033e+01 -1.52670e+01  2.47648e+01             
       H -7.46446e+01 -1.47101e+01  2.40013e+01             
       H -7.40672e+01 -1.45822e+01  2.54379e+01             
       O -6.67251e+01 -1.92191e+01  2.22219e+01             
       H -4.60573e+01 -9.80374e+00  3.97938e+01             
       H -6.68785e+01 -1.83421e+01  2.25296e+01             
       O -6.83503e+01 -1.75673e+01  5.13214e+01             
       H -6.80462e+01 -1.70900e+01  5.20852e+01             
       H -6.92759e+01 -1.75375e+01  5.14614e+01             
       O -6.64305e+01 -1.41490e+01  7.19135e+01             
       H -6.72399e+01 -1.36978e+01  7.12940e+01             
       H -6.60290e+01 -1.33416e+01  7.22466e+01             
192                                                         
# CELL(abcABC):   12.41850    12.41850    12.41850    90.00000    90.00000    90.00000  Step:      200000  Bead:       0 x_centroid{angstrom}  cell{angstrom}   
       O -8.89951e+01 -1.60219e+01  7.79217e+01             
       H -8.92437e+01 -1.51727e+01  7.75205e+01             
       H -8.83475e+01 -1.63855e+01  7.72535e+01             
       O -7.76401e+01 -1.31894e+01  7.22722e+01             
       H -7.22525e+01 -2.24921e+01  5.92292e+01             
       H -7.71578e+01 -1.26967e+01  7.30106e+01             
       O -8.26905e+01 -2.59882e+01  5.68148e+01             
       H -8.23774e+01 -1.43220e+01  5.73856e+01             
       H -8.24468e+01 -2.51062e+01  5.72245e+01             
       O -7.16442e+01 -2.44914e+01  6.51723e+01             
       H -7.11774e+01 -2.38705e+01  6.57890e+01             
       H -7.12796e+01 -2.41829e+01  6.43095e+01             
       O -6.65693e+01 -2.17708e+01  5.84445e+01             
       H -6.70578e+01 -2.22918e+01  5.77445e+01             
       H -6.63779e+01 -2.10135e+01  5.78360e+01             
       O -7.58949e+01 -2.37414e+01  7.37502e+01             
       H -7.58313e+01 -2.37601e+01  7.47425e+01             
       H -7.62293e+01 -2.29015e+01  7.33971e+01             
       O -7.70548e+01 -2.37343e+01  4.53722e+01             
       H -7.61492e+01 -2.34869e+01  4.53891e+01             
       H -7.04418e+01 -2.39351e+00  6.18774e+01             
       O -6.50437e+01 -1.74190e+01  7.44187e+01             
       H -6.48506e+01 -1.79683e+01  7.52609e+01             
       H -6.41987e+01 -2.94037e+01  7.41194e+01             
       O -8.57488e+01 -1.16793e+01  4.79052e+01             
       H -8.66047e+01 -1.16992e+01  4.82677e+01             
       H -8.56280e+01 -1.25924e+01  4.75612e+01             
       O -7.83905e+01 -2.78904e+01  5.74307e+01             
       H -7.76421e+01 -2.79560e+01  5.80250e+01             
       H -7.81726e+01 -2.71410e+01  5.68680e+01             
       O -8.18312e+01 -1.11582e+01  7.02410e+01             
       H -8.25490e+01 -1.06230e+01  7.06321e+01             
       H -8.13760e+01 -1.14336e+01  7.10853e+01             
       O -7.65408e+01 -8.76299e+00  4.82453e+01             
       H -7.75058e+01 -8.78434e+00  4.83155e+01             
       H -7.16310e+01 -1.54210e+01  5.44669e+01             
       O -7.03389e+01 -3.90475e+01  5.41614e+01             
       H -7.08158e+01 -3.83781e+01  5.36059e+01             
       H -7.13794e+01 -2.92685e+01  6.33717e+01             
       O -8.68645e+01 -2.79724e+01  5.51931e+01             
       H -8.68811e+01 -2.70312e+01  5.52895e+01             
       H -8.73517e+01 -2.81404e+01  5.43699e+01             
       O -6.48485e+01 -3.12673e+01  6.45029e+01             
       H -6.47233e+01 -3.04716e+01  6.50549e+01             
       H -6.56710e+01 -3.16256e+01  6.48732e+01             
       O -8.14120e+01 -1.29073e+01  6.25572e+01             
       H -8.10423e+01 -1.29345e+01  6.34530e+01             
       H -8.06738e+01 -1.29477e+01  6.19689e+01             
       O -7.46029e+01 -1.03449e+01  4.55920e+01             
       H -7.41667e+01 -2.29579e+01  4.46871e+01             
       H -7.39753e+01 -1.06014e+01  4.63215e+01             
       O -8.06692e+01 -2.54611e+01  4.72591e+01             
       H -8.12526e+01 -2.61355e+01  4.69343e+01             
       H -7.97812e+01 -2.57567e+01  4.70491e+01             
       O -8.11414e+01 -1.69762e+01  6.33500e+01             
       H -8.08143e+01 -1.79018e+01  6.34107e+01             
       H -8.10382e+01 -1.66172e+01  6.42864e+01             
       O -7.73907e+01  3.12844e+00  5.48340e+01             
       H -6.07989e+01 -2.26441e+01  5.54116e+01             
       H -7.70837e+01  2.98809e+00  5.39010e+01             
       O -7.99019e+01 -1.95918e+01  6.54315e+01             
       H -7.39118e+01 -1.93343e+01  5.95296e+01             
       H -9.32136e+01 -1.93257e+01  6.53221e+01             
       O -7.33035e+01 -2.99360e+01  5.70655e+01             
       H -7.23740e+01 -2.98335e+01  5.70648e+01             
       H -7.36122e+01 -2.92578e+01  5.64080e+01             
       O -7.76401e+01 -2.58205e+01  6.47553e+01             
       H -7.67712e+01 -2.55200e+01  6.44314e+01             
       H -7.80614e+01 -2.62855e+01  6.39864e+01             
       O -6.92816e+01 -4.54760e+01  6.21884e+01             
       H -6.98532e+01 -4.63055e+01  6.21094e+01             
       H -6.84680e+01 -4.56154e+01  7.40941e+01             
       O -7.89730e+01 -6.06034e+00  6.01390e+01             
       H -7.83809e+01 -5.71639e+00  6.08652e+01             
       H -7.85429e+01 -6.00252e+00  5.92484e+01             
       O -6.61732e+01 -2.29025e+01  6.32391e+01             
       H -6.64039e+01 -2.21581e+01  6.26516e+01             
       H -6.52873e+01 -2.27316e+01  6.35615e+01             
       O -8.05942e+01 -2.54828e+01  7.75718e+01             
       H -8.12221e+01 -2.61685e+01  7.79285e+01             
       H -7.97485e+01 -2.57321e+01  7.78762e+01             
       O -9.31159e+01 -2.19935e+01  5.19788e+01             
       H -9.23195e+01 -2.25852e+01  5.17289e+01             
       H -9.36043e+01 -2.17869e+01  5.11895e+01             
       O -6.91335e+01 -4.81533e+00  7.30753e+01             
       H -6.81494e+01 -5.10896e+00  7.30134e+01             
       H -6.92913e+01 -4.44287e+00  7.39164e+01             
       O -7.44125e+01 -1.84746e+01  5.41960e+01             
       H -7.44503e+01 -1.78416e+01  5.34974e+01             
       H -7.53453e+01 -1.85400e+01  4.21086e+01             
       O -7.06717e+01 -1.06932e+01  3.75376e+01             
       H -6.99409e+01 -1.14395e+01  3.75938e+01             
       H -8.37388e+01 -1.09830e+01  3.69319e+01             
       O -6.47394e+01 -1.83250e+01  3.32675e+01             
       H -6.41482e+01 -1.89769e+01  3.36047e+01             
       H -6.44282e+01 -1.75088e+01  3.36490e+01             
       O -7.77277e+01 -2.56904e+01  4.33816e+01             
       H -7.75097e+01 -2.51140e+01  4.41738e+01             
       H -7.85006e+01 -2.52025e+01  5.54000e+01             
       O -6.86541e+01 -1.63377e+01  4.11577e+01             
       H -7.84329e+01 -1.56160e+01  5.01013e+01             
       H -6.81548e+01 -1.67815e+01  4.19181e+01             
       O -8.00226e+01 -2.96142e+01  5.57882e+01             
       H -7.93623e+01 -2.89235e+01  5.62770e+01             
       H -7.98150e+01 -3.05442e+01  5.59091e+01             
       O -6.43964e+01 -1.58281e+01  4.72798e+01             
       H -6.34388e+01 -1.59544e+01  4.70720e+01             
       H -6.45998e+01 -1.49279e+01  4.74683e+01             
       O -7.05492e+01 -3.01474e+01  5.62314e+01             
       H -7.09697e+01 -2.97104e+01  5.54786e+01             
       H -6.97491e+01 -2.96811e+01  5.64903e+01             
       O -7.45199e+01 -1.71474e+01  6.36634e+01             
       H -7.35280e+01 -1.72171e+01  6.36449e+01             
       H -7.46921e+01 -1.80537e+01  6.35893e+01             
       O -6.23201e+01  4.80519e+00  7.04994e+01             
       H -6.18119e+01  5.15829e+00  6.97054e+01             
       H -6.23332e+01  3.85752e+00  7.05696e+01             
       O -7.18598e+01 -2.98514e+01  6.39652e+01             
       H -7.76748e+01 -2.30018e+01  4.55991e+01             
       H -7.18362e+01 -2.94364e+01  6.48509e+01             
       O -7.13787e+01 -2.21668e+01  5.90474e+01             
       H -6.93008e+01 -1.57997e+01  4.15711e+01             
       H -7.14303e+01 -2.11981e+01  5.88165e+01             
       O -7.20289e+01 -1.63095e+01  5.44123e+01             
       H -7.69847e+01 -1.00347e+01  5.52233e+01             
       H -7.29932e+01 -1.61002e+01  5.45971e+01             
       O -7.42845e+01 -2.50405e+01  6.44997e+01             
       H -8.57239e+01 -2.47877e+01  7.70769e+01             
       H -6.49917e+01 -1.25188e+01  7.15069e+01             
       O -9.83835e+01 -2.08215e+01  6.48966e+01             
       H -9.77738e+01 -2.12892e+01  6.54639e+01             
       H -9.87200e+01 -2.01818e+01  6.55329e+01             
       O -7.32443e+01 -3.58695e+01  5.58614e+01             
       H -7.38776e+01 -3.64708e+01  5.53957e+01             
       H -7.99468e+01 -2.05297e+01  6.52860e+01             
       O -7.89353e+01 -1.48995e+01  5.04790e+01             
       H -7.97323e+01 -1.52778e+01  5.09119e+01             
       H -8.75094e+01 -2.30463e+01  2.71971e+01             
       O -8.66936e+01 -2.89865e+01  4.67672e+01             
       H -8.64195e+01 -2.93503e+01  4.58990e+01             
       H -8.63880e+01 -2.97315e+01  4.73524e+01             
       O -7.24193e+01 -2.67462e+01  4.69265e+01             
       H -7.31406e+01 -2.74218e+01  4.69373e+01             
       H -7.21380e+01 -2.66039e+01  4.60155e+01             
       O -5.63187e+01 -2.80051e+01  5.83099e+01             
       H -5.65087e+01 -1.61381e+01  5.90971e+01             
       H -5.53888e+01 -2.80287e+01  5.81155e+01             
       O -6.98601e+01 -7.78691e+00  6.79499e+01             
       H -5.76589e+01 -6.88202e+00  6.82936e+01             
       H -6.97909e+01 -7.52488e+00  6.70236e+01             
       O -7.13344e+01 -2.85323e+00  6.16805e+01             
       H -7.02463e+01 -3.86044e+01  5.51290e+01             
       H -7.61667e+01  3.93856e+00  4.91364e+01             
       O -8.33143e+01 -1.92158e+01  6.01111e+01             
       H -8.26519e+01 -1.84129e+01  6.00266e+01             
       H -8.28672e+01 -1.96854e+01  6.08079e+01             
       O -7.93217e+01 -7.45971e+00  4.36514e+01             
       H -8.02019e+01 -2.02089e+01  4.34119e+01             
       H -7.88520e+01 -7.56419e+00  4.28020e+01             
       O -8.73093e+01 -2.00726e+01  6.24962e+01             
       H -8.67921e+01 -1.96281e+01  6.17514e+01             
       H -8.67034e+01 -2.03682e+01  6.31413e+01             
       O -8.63962e+01 -2.69791e+01  6.28964e+01             
       H -8.67748e+01 -2.78663e+01  6.27252e+01             
       H -8.55449e+01 -2.69857e+01  6.23642e+01             
       O -8.60081e+01 -1.89297e+01  4.79861e+01             
       H -8.50304e+01 -1.90290e+01  6.03309e+01             
       H -8.67077e+01 -3.81972e+01  5.13463e+01             
       O -7.31570e+01 -2.04673e+01  6.78148e+01             
       H -7.32489e+01 -1.97440e+01  6.71928e+01             
       H -7.22016e+01 -2.05450e+01  6.80033e+01             
       O -7.50669e+01 -2.53430e+01  5.47902e+01             
       H -7.60393e+01 -2.54120e+01  5.47234e+01             
       H -7.48250e+01 -2.53914e+01  5.37728e+01             
       O -9.18749e+01 -2.09775e+01  6.10351e+01             
       H -9.17198e+01 -2.00003e+01  6.08499e+01             
       H -9.19412e+01 -2.13983e+01  6.01554e+01             
       O -6.74234e+01 -3.54478e+01  5.59267e+01             
       H -6.83675e+01 -3.55300e+01  5.55847e+01             
       H -6.69032e+01 -3.51657e+01  5.51544e+01             
       O -8.93472e+01 -1.81820e+01  3.05763e+01             
       H -8.96391e+01 -1.84391e+01  3.14625e+01             
       H -8.97903e+01 -1.73459e+01  3.03699e+01             
       O -7.57747e+01 -2.24021e+01  2.70089e+01             
       H -5.91079e+01 -1.49262e+01  4.84039e+01             
       H -7.53726e+01 -2.15740e+01  2.68274e+01             
       O -8.23901e+01 -2.28879e+01  5.39826e+01             
       H -8.18609e+01 -2.26138e+01  5.32152e+01             
       H -8.26293e+01 -2.20435e+01  5.44309e+01             
       O -8.25840e+01 -1.95789e+01  7.72576e+01             
       H -8.21697e+01 -1.99974e+01  7.64697e+01             
       H -8.32802e+01 -1.89237e+01  7.69394e+01             
