192                                                         
# CELL(abcABC):   12.41850    12.41850    12.41850    90.00000    90.00000    90.00000  Step:           0  Bead:       0 x_centroid{angstrom}  cell{angstrom}   
       O -8.07435e+01 -1.15609e+01  6.73033e+01             
       H -8.06920e+01 -1.24048e+01  6.68286e+01             
       H -7.98474e+01 -1.14553e+01  6.76503e+01             
       O -7.72272e+01 -1.30130e+01  6.15930e+01             
       H -6.75401e+01 -2.01964e+01  6.12935e+01             
       H -7.70317e+01 -1.23228e+01  6.09311e+01             
       O -7.82967e+01 -2.36174e+01  5.58820e+01             
       H -7.78412e+01 -1.18499e+01  5.53242e+01             
       H -7.77520e+01 -2.33751e+01  5.65720e+01             
       O -6.31299e+01 -2.13691e+01  5.46499e+01             
       H -6.26939e+01 -2.14710e+01  5.54834e+01             
       H -6.40600e+01 -2.10415e+01  5.46809e+01             
       O -6.15482e+01 -2.27369e+01  5.29649e+01             
       H -6.21145e+01 -2.30517e+01  5.22022e+01             
       H -6.21919e+01 -2.22485e+01  5.35726e+01             
       O -6.37842e+01 -1.78123e+01  6.59481e+01             
       H -6.38242e+01 -1.68609e+01  6.60175e+01             
       H -6.37263e+01 -1.82598e+01  6.68071e+01             
       O -7.80639e+01 -2.44439e+01  3.95780e+01             
       H -7.84854e+01 -2.36025e+01  3.96098e+01             
       H -6.75906e+01  2.17357e+00  5.31283e+01             
       O -5.74210e+01 -1.63908e+01  7.25785e+01             
       H -5.68154e+01 -1.70900e+01  7.29323e+01             
       H -5.81692e+01 -2.86220e+01  7.32274e+01             
       O -7.80871e+01 -8.08048e+00  4.21213e+01             
       H -7.86164e+01 -8.17481e+00  4.29142e+01             
       H -7.84722e+01 -8.63903e+00  4.14224e+01             
       O -6.91040e+01 -2.26559e+01  5.77547e+01             
       H -6.95552e+01 -2.26182e+01  5.86021e+01             
       H -6.92077e+01 -2.36387e+01  5.75985e+01             
       O -7.27014e+01 -8.61456e+00  6.17619e+01             
       H -7.25131e+01 -8.76107e+00  6.27159e+01             
       H -7.36341e+01 -8.71054e+00  6.16595e+01             
       O -6.80034e+01 -1.09718e+01  4.99963e+01             
       H -6.84810e+01 -1.10698e+01  5.08128e+01             
       H -6.09821e+01 -1.46104e+01  4.89491e+01             
       O -6.42787e+01 -3.32637e+01  5.00490e+01             
       H -6.38945e+01 -3.30755e+01  4.91765e+01             
       H -6.31239e+01 -2.60630e+01  6.20063e+01             
       O -7.53471e+01 -2.05498e+01  4.77305e+01             
       H -7.54342e+01 -1.99523e+01  4.69504e+01             
       H -7.50988e+01 -2.13477e+01  4.72516e+01             
       O -5.60253e+01 -2.72724e+01  6.28705e+01             
       H -5.58311e+01 -2.66898e+01  6.20843e+01             
       H -5.52167e+01 -2.78317e+01  6.28406e+01             
       O -7.22946e+01 -1.32184e+01  6.34453e+01             
       H -7.29704e+01 -1.33428e+01  6.27705e+01             
       H -7.15575e+01 -1.37749e+01  6.32097e+01             
       O -7.56125e+01 -1.81582e+01  4.61509e+01             
       H -7.60303e+01 -3.03333e+01  4.53056e+01             
       H -7.60809e+01 -1.76638e+01  4.68477e+01             
       O -7.28604e+01 -2.36054e+01  4.47454e+01             
       H -7.24790e+01 -2.38099e+01  4.56103e+01             
       H -7.21007e+01 -2.35395e+01  4.41384e+01             
       O -7.63549e+01 -1.28563e+01  5.44082e+01             
       H -7.62052e+01 -1.20126e+01  5.39637e+01             
       H -7.55500e+01 -1.30064e+01  5.49429e+01             
       O -6.72317e+01  8.59752e+00  5.42341e+01             
       H -5.51594e+01 -2.47182e+01  4.90256e+01             
       H -6.71948e+01  7.78303e+00  5.37413e+01             
       O -7.18389e+01 -2.13759e+01  6.43475e+01             
       H -6.53133e+01 -2.83303e+01  6.08916e+01             
       H -8.50560e+01 -2.17310e+01  6.48211e+01             
       O -6.74723e+01 -2.99141e+01  5.78583e+01             
       H -6.66907e+01 -2.94297e+01  5.75548e+01             
       H -6.82063e+01 -2.93921e+01  5.75999e+01             
       O -6.98561e+01 -1.60693e+01  5.74681e+01             
       H -7.00647e+01 -1.61412e+01  5.84308e+01             
       H -7.07022e+01 -1.61781e+01  5.70178e+01             
       O -6.06373e+01 -4.32986e+01  5.30825e+01             
       H -5.97463e+01 -4.36873e+01  5.31742e+01             
       H -6.11393e+01 -4.37544e+01  6.48645e+01             
       O -7.48311e+01 -9.34220e+00  5.74654e+01             
       H -7.42332e+01 -8.67348e+00  5.77852e+01             
       H -7.43151e+01 -1.01347e+01  5.72234e+01             
       O -6.79407e+01 -1.98337e+01  5.64887e+01             
       H -6.74990e+01 -1.89923e+01  5.68248e+01             
       H -6.77175e+01 -2.05377e+01  5.71142e+01             
       O -6.85151e+01 -2.00886e+01  7.64256e+01             
       H -6.86983e+01 -2.00014e+01  7.55305e+01             
       H -6.92460e+01 -1.97586e+01  7.69069e+01             
       O -8.56048e+01 -1.69176e+01  4.68956e+01             
       H -8.53512e+01 -1.65777e+01  4.60530e+01             
       H -8.63209e+01 -1.74672e+01  4.66267e+01             
       O -6.26914e+01 -6.53801e+00  6.37561e+01             
       H -6.33168e+01 -6.19411e+00  6.44274e+01             
       H -6.31186e+01 -7.28480e+00  6.32750e+01             
       O -6.81083e+01 -1.38230e+01  5.31559e+01             
       H -6.83799e+01 -1.40355e+01  5.22555e+01             
       H -6.75209e+01 -1.45977e+01  4.09707e+01             
       O -6.12150e+01 -1.35750e+01  3.09418e+01             
       H -6.08410e+01 -1.31321e+01  3.01420e+01             
       H -7.34192e+01 -1.29359e+01  3.16750e+01             
       O -5.62054e+01 -1.89849e+01  3.55537e+01             
       H -5.71943e+01 -1.92767e+01  3.53968e+01             
       H -5.58542e+01 -1.89292e+01  3.46674e+01             
       O -7.25633e+01 -2.49188e+01  4.12628e+01             
       H -7.25293e+01 -2.53535e+01  4.04115e+01             
       H -7.31849e+01 -2.42395e+01  5.34353e+01             
       O -5.82134e+01 -1.60383e+01  3.92082e+01             
       H -6.71556e+01 -9.68364e+00  4.62925e+01             
       H -5.88027e+01 -1.66280e+01  3.87724e+01             
       O -6.85859e+01 -2.57455e+01  5.78738e+01             
       H -6.91108e+01 -2.64743e+01  5.75433e+01             
       H -6.86852e+01 -2.58406e+01  5.87853e+01             
       O -6.04815e+01 -1.98128e+01  4.52369e+01             
       H -5.99196e+01 -1.94199e+01  4.59234e+01             
       H -5.98022e+01 -1.99923e+01  4.45834e+01             
       O -6.10498e+01 -2.81761e+01  5.21879e+01             
       H -6.07709e+01 -2.90405e+01  5.25739e+01             
       H -6.02307e+01 -2.76902e+01  5.19666e+01             
       O -6.65128e+01 -5.98545e+00  6.49104e+01             
       H -6.72146e+01 -6.59058e+00  6.48591e+01             
       H -6.58155e+01 -6.41694e+00  6.53583e+01             
       O -5.89149e+01  5.26464e+00  7.23405e+01             
       H -5.94849e+01  4.65910e+00  7.28356e+01             
       H -5.90327e+01  6.11402e+00  7.27906e+01             
       O -6.22952e+01 -2.64532e+01  6.24614e+01             
       H -7.88064e+01 -2.50028e+01  3.99601e+01             
       H -6.25568e+01 -2.68649e+01  6.33024e+01             
       O -6.69454e+01 -2.08467e+01  6.16602e+01             
       H -5.75273e+01 -1.57956e+01  3.85039e+01             
       H -6.65242e+01 -2.11878e+01  6.08225e+01             
       O -6.01870e+01 -1.47080e+01  4.83758e+01             
       H -6.80978e+01 -3.89109e+00  5.47261e+01             
       H -6.02683e+01 -1.55211e+01  4.78972e+01             
       O -6.56517e+01 -2.63206e+01  5.80334e+01             
       H -7.90033e+01 -2.60948e+01  7.04057e+01             
       H -6.54307e+01 -1.26296e+01  6.22031e+01             
       O -9.07817e+01 -1.61757e+01  6.30243e+01             
       H -9.07586e+01 -1.70314e+01  6.34869e+01             
       H -9.01033e+01 -1.55778e+01  6.33607e+01             
       O -6.76506e+01 -3.78931e+01  4.84224e+01             
       H -6.68055e+01 -3.79813e+01  4.79884e+01             
       H -7.13188e+01 -2.08865e+01  6.49280e+01             
       O -6.63943e+01 -9.14108e+00  4.65919e+01             
       H -6.56980e+01 -9.78217e+00  4.65468e+01             
       H -8.64389e+01 -2.39748e+01  2.28764e+01             
       O -7.69021e+01 -2.35713e+01  4.62912e+01             
       H -7.60072e+01 -2.34187e+01  4.66592e+01             
       H -7.68017e+01 -2.45027e+01  4.60366e+01             
       O -7.08688e+01 -2.33141e+01  4.28752e+01             
       H -7.13486e+01 -2.40281e+01  4.24484e+01             
       H -6.98978e+01 -2.35055e+01  4.28922e+01             
       O -5.13133e+01 -2.73708e+01  5.26203e+01             
       H -5.03741e+01 -1.51186e+01  5.26917e+01             
       H -5.15773e+01 -2.66513e+01  5.32401e+01             
       O -6.18715e+01 -5.73316e+00  5.58902e+01             
       H -4.91441e+01 -6.15043e+00  5.50789e+01             
       H -6.14496e+01 -6.15557e+00  5.66350e+01             
       O -6.70949e+01  2.85368e+00  5.27282e+01             
       H -6.51702e+01 -3.28293e+01  4.99988e+01             
       H -6.78043e+01  2.39349e+00  4.98751e+01             
       O -7.19855e+01 -1.79401e+01  4.97479e+01             
       H -7.21668e+01 -1.88075e+01  5.01563e+01             
       H -7.29420e+01 -1.75328e+01  4.96873e+01             
       O -7.02790e+01 -1.05932e+01  4.80917e+01             
       H -7.07748e+01 -2.22356e+01  4.84276e+01             
       H -6.96483e+01 -1.08231e+01  4.88115e+01             
       O -7.76973e+01 -1.64363e+01  5.65163e+01             
       H -7.76229e+01 -1.55055e+01  5.65954e+01             
       H -7.81485e+01 -1.65191e+01  5.56039e+01             
       O -7.06293e+01 -2.05534e+01  5.60883e+01             
       H -7.06367e+01 -2.14860e+01  5.59465e+01             
       H -6.97835e+01 -2.03285e+01  5.65668e+01             
       O -7.80187e+01 -2.86305e+01  4.76492e+01             
       H -7.89631e+01 -2.87362e+01  6.01533e+01             
       H -7.79371e+01 -3.96258e+01  4.60051e+01             
       O -6.32637e+01 -2.34397e+01  6.32473e+01             
       H -6.38752e+01 -2.41565e+01  6.34515e+01             
       H -6.37986e+01 -2.26688e+01  6.31104e+01             
       O -6.98391e+01 -2.35950e+01  5.19600e+01             
       H -7.05371e+01 -2.28896e+01  5.18014e+01             
       H -7.00617e+01 -2.38595e+01  5.28455e+01             
       O -8.45881e+01 -1.59424e+01  5.59994e+01             
       H -8.51355e+01 -1.51343e+01  5.59810e+01             
       H -8.52795e+01 -1.66475e+01  5.58631e+01             
       O -5.99668e+01 -2.46215e+01  4.73095e+01             
       H -5.91914e+01 -2.41747e+01  4.76195e+01             
       H -6.00324e+01 -2.55509e+01  4.77171e+01             
       O -8.28238e+01 -1.95522e+01  2.87345e+01             
       H -8.26936e+01 -1.86262e+01  2.89472e+01             
       H -8.29133e+01 -1.99074e+01  2.96630e+01             
       O -7.48629e+01 -2.36690e+01  2.31785e+01             
       H -5.53489e+01 -9.11221e+00  3.97416e+01             
       H -7.48462e+01 -2.38519e+01  2.41199e+01             
       O -7.43447e+01 -1.69176e+01  4.96000e+01             
       H -7.47468e+01 -1.75375e+01  5.02116e+01             
       H -7.41365e+01 -1.61747e+01  5.02039e+01             
       O -7.01741e+01 -1.68965e+01  7.90296e+01             
       H -7.01722e+01 -1.62759e+01  7.82537e+01             
       H -7.08956e+01 -1.65198e+01  7.96523e+01             
192                                                         
# CELL(abcABC):   12.41850    12.41850    12.41850    90.00000    90.00000    90.00000  Step:      200000  Bead:       0 x_centroid{angstrom}  cell{angstrom}   
       O -9.83839e+01 -1.77885e+01  7.59301e+01             
       H -9.75664e+01 -1.77231e+01  7.64450e+01             
       H -9.88071e+01 -1.68764e+01  7.59886e+01             
       O -9.17838e+01 -2.15702e+01  7.31172e+01             
       H -8.28466e+01 -2.66152e+01  7.03333e+01             
       H -9.14586e+01 -2.09245e+01  7.37848e+01             
       O -9.44301e+01 -3.06356e+01  6.81593e+01             
       H -9.45638e+01 -1.91610e+01  6.78002e+01             
       H -9.39168e+01 -3.01550e+01  6.74671e+01             
       O -7.86817e+01 -2.72066e+01  6.25169e+01             
       H -7.84286e+01 -2.69934e+01  6.34180e+01             
       H -7.81828e+01 -2.66741e+01  6.18280e+01             
       O -8.08350e+01 -2.57795e+01  5.98930e+01             
       H -8.06861e+01 -2.57377e+01  6.08582e+01             
       H -7.99273e+01 -2.55867e+01  5.94398e+01             
       O -8.47911e+01 -2.45944e+01  7.61434e+01             
       H -8.40158e+01 -2.41836e+01  7.65981e+01             
       H -8.52386e+01 -2.50462e+01  7.68740e+01             
       O -9.36181e+01 -2.37259e+01  4.99657e+01             
       H -9.35464e+01 -2.46362e+01  5.02777e+01             
       H -8.61522e+01 -1.63906e+00  6.12060e+01             
       O -7.40514e+01 -1.98641e+01  8.09007e+01             
       H -7.41916e+01 -1.88934e+01  8.12222e+01             
       H -7.33560e+01 -3.25428e+01  8.15287e+01             
       O -9.92088e+01 -1.51770e+01  5.16695e+01             
       H -9.86281e+01 -1.46278e+01  5.21885e+01             
       H -9.93813e+01 -1.47846e+01  5.08141e+01             
       O -8.82394e+01 -2.65627e+01  6.98643e+01             
       H -8.87598e+01 -2.68484e+01  7.05903e+01             
       H -8.87012e+01 -2.66536e+01  6.89847e+01             
       O -8.70516e+01 -1.15667e+01  6.96035e+01             
       H -8.76597e+01 -1.07935e+01  6.96814e+01             
       H -8.75587e+01 -1.24076e+01  6.98169e+01             
       O -8.33504e+01 -1.87047e+01  5.81619e+01             
       H -8.25465e+01 -1.83588e+01  5.76674e+01             
       H -7.87084e+01 -2.44523e+01  5.69089e+01             
       O -7.98857e+01 -4.05495e+01  5.74077e+01             
       H -7.91042e+01 -4.00876e+01  5.76932e+01             
       H -7.66524e+01 -3.46523e+01  7.22191e+01             
       O -8.96336e+01 -2.85895e+01  5.93361e+01             
       H -8.96460e+01 -2.94792e+01  5.89806e+01             
       H -9.02887e+01 -2.84451e+01  6.00508e+01             
       O -7.21376e+01 -3.08065e+01  7.36916e+01             
       H -7.27112e+01 -3.03184e+01  7.43777e+01             
       H -7.13766e+01 -3.02511e+01  7.34873e+01             
       O -8.45676e+01 -1.48479e+01  7.15655e+01             
       H -8.49378e+01 -1.49794e+01  7.06727e+01             
       H -8.48191e+01 -1.39241e+01  7.18195e+01             
       O -9.54795e+01 -2.35270e+01  5.31038e+01             
       H -9.61232e+01 -3.58269e+01  5.39007e+01             
       H -9.50421e+01 -2.26675e+01  5.30512e+01             
       O -9.10945e+01 -2.61998e+01  5.28671e+01             
       H -9.19351e+01 -2.59083e+01  5.32840e+01             
       H -9.05696e+01 -2.63918e+01  5.36508e+01             
       O -9.37703e+01 -1.43912e+01  6.25870e+01             
       H -9.43705e+01 -1.48999e+01  6.20226e+01             
       H -9.30090e+01 -1.49365e+01  6.27634e+01             
       O -8.76665e+01  8.05949e+00  6.64350e+01             
       H -6.77675e+01 -3.13285e+01  5.71044e+01             
       H -8.69708e+01  8.22202e+00  6.57397e+01             
       O -8.63583e+01 -2.23054e+01  7.63049e+01             
       H -8.14106e+01 -3.66023e+01  7.12274e+01             
       H -9.84905e+01 -2.16904e+01  7.69841e+01             
       O -8.25403e+01 -3.31221e+01  6.75840e+01             
       H -8.19057e+01 -3.37322e+01  6.80283e+01             
       H -8.25975e+01 -3.30442e+01  6.66261e+01             
       O -8.98974e+01 -1.87923e+01  6.58411e+01             
       H -8.96582e+01 -1.96907e+01  6.60928e+01             
       H -8.91397e+01 -1.82019e+01  6.59938e+01             
       O -8.04571e+01 -4.69185e+01  6.44190e+01             
       H -8.08903e+01 -4.72614e+01  6.36095e+01             
       H -8.00684e+01 -4.60659e+01  7.66709e+01             
       O -9.36501e+01 -1.29126e+01  6.67911e+01             
       H -9.42272e+01 -1.21213e+01  6.63983e+01             
       H -9.40864e+01 -1.31857e+01  6.75812e+01             
       O -8.51038e+01 -2.62827e+01  6.59663e+01             
       H -8.50885e+01 -2.63333e+01  6.69306e+01             
       H -8.42889e+01 -2.67768e+01  6.55768e+01             
       O -8.76691e+01 -2.43973e+01  7.85813e+01             
       H -8.74092e+01 -2.37587e+01  7.92748e+01             
       H -8.74920e+01 -2.39840e+01  7.77362e+01             
       O -1.05350e+02 -2.19077e+01  5.63900e+01             
       H -1.05870e+02 -2.23639e+01  5.71575e+01             
       H -1.04700e+02 -2.25241e+01  5.60329e+01             
       O -8.38378e+01 -1.18226e+01  6.91905e+01             
       H -8.45569e+01 -1.23698e+01  6.96096e+01             
       H -8.31286e+01 -1.17849e+01  6.98548e+01             
       O -8.86745e+01 -1.93309e+01  6.08582e+01             
       H -8.92870e+01 -1.96188e+01  6.15380e+01             
       H -8.80252e+01 -2.00543e+01  4.84025e+01             
       O -7.95342e+01 -1.74312e+01  3.73109e+01             
       H -7.98541e+01 -1.75292e+01  3.64139e+01             
       H -9.16416e+01 -1.64988e+01  3.75186e+01             
       O -7.24009e+01 -2.25670e+01  4.25056e+01             
       H -7.17552e+01 -2.18393e+01  4.27290e+01             
       H -7.23079e+01 -2.32460e+01  4.31945e+01             
       O -8.67855e+01 -2.94594e+01  4.74014e+01             
       H -8.59241e+01 -2.97055e+01  4.77512e+01             
       H -8.74112e+01 -3.00594e+01  6.03095e+01             
       O -7.47079e+01 -2.15917e+01  4.87079e+01             
       H -8.21757e+01 -1.42492e+01  5.31557e+01             
       H -7.44858e+01 -2.18961e+01  4.96174e+01             
       O -8.43049e+01 -2.90897e+01  6.75529e+01             
       H -8.41155e+01 -2.94502e+01  6.66143e+01             
       H -8.36341e+01 -2.95105e+01  6.80875e+01             
       O -7.66300e+01 -2.12904e+01  5.39930e+01             
       H -7.57142e+01 -2.10948e+01  5.37774e+01             
       H -7.69971e+01 -2.18758e+01  5.33127e+01             
       O -7.84708e+01 -3.23068e+01  6.27048e+01             
       H -7.88933e+01 -3.13672e+01  6.25526e+01             
       H -7.79027e+01 -3.22102e+01  6.35086e+01             
       O -8.53527e+01 -1.22849e+01  7.21497e+01             
       H -8.61837e+01 -1.18212e+01  7.18783e+01             
       H -8.47731e+01 -1.16312e+01  7.26239e+01             
       O -7.75564e+01  1.50678e+00  7.72226e+01             
       H -7.72548e+01  8.97292e-01  7.79483e+01             
       H -7.85156e+01  1.36080e+00  7.70903e+01             
       O -7.71777e+01 -3.48037e+01  7.13918e+01             
       H -9.44194e+01 -2.37044e+01  4.94550e+01             
       H -7.68004e+01 -3.41984e+01  7.07216e+01             
       O -8.24365e+01 -2.68059e+01  6.94831e+01             
       H -7.38901e+01 -2.15235e+01  4.82707e+01             
       H -8.30552e+01 -2.71629e+01  6.88458e+01             
       O -7.87949e+01 -2.42915e+01  5.59814e+01             
       H -8.72878e+01 -4.63411e+00  6.72403e+01             
       H -7.94632e+01 -2.48641e+01  5.57005e+01             
       O -8.32594e+01 -3.31111e+01  6.22696e+01             
       H -9.62135e+01 -3.23582e+01  7.43376e+01             
       H -7.86760e+01 -2.16723e+01  7.24480e+01             
       O -1.05599e+02 -1.76013e+01  7.18323e+01             
       H -1.05352e+02 -1.68569e+01  7.12531e+01             
       H -1.05118e+02 -1.83711e+01  7.16181e+01             
       O -7.98317e+01 -4.43613e+01  5.76954e+01             
       H -8.00635e+01 -4.51950e+01  5.72513e+01             
       H -8.57799e+01 -2.30750e+01  7.62882e+01             
       O -8.26394e+01 -1.50669e+01  5.27829e+01             
       H -8.24879e+01 -1.49066e+01  5.18387e+01             
       H -9.94560e+01 -2.94829e+01  3.28885e+01             
       O -9.20928e+01 -2.96151e+01  5.44879e+01             
       H -9.19149e+01 -2.92062e+01  5.53425e+01             
       H -9.14311e+01 -3.03498e+01  5.43597e+01             
       O -8.90635e+01 -2.66336e+01  5.47074e+01             
       H -8.86911e+01 -2.74877e+01  5.44275e+01             
       H -8.85116e+01 -2.58813e+01  5.43554e+01             
       O -6.93762e+01 -3.35652e+01  6.01804e+01             
       H -6.95061e+01 -2.04121e+01  5.95675e+01             
       H -6.84201e+01 -3.36648e+01  6.03347e+01             
       O -8.35177e+01 -5.39163e+00  6.51446e+01             
       H -7.07961e+01 -6.36946e+00  6.49665e+01             
       H -8.27741e+01 -4.84603e+00  6.49138e+01             
       O -8.70824e+01 -2.00390e+00  6.10756e+01             
       H -8.07182e+01 -4.00289e+01  5.72890e+01             
       H -8.34170e+01 -5.73213e+00  5.89296e+01             
       O -8.99265e+01 -2.33870e+01  6.21674e+01             
       H -8.96420e+01 -2.35569e+01  6.30600e+01             
       H -9.08960e+01 -2.33667e+01  6.22128e+01             
       O -8.57274e+01 -1.46738e+01  5.65369e+01             
       H -8.66717e+01 -2.70725e+01  5.65837e+01             
       H -8.54343e+01 -1.54527e+01  5.60047e+01             
       O -8.85655e+01 -2.11345e+01  6.91250e+01             
       H -8.77849e+01 -2.05490e+01  6.88040e+01             
       H -8.89023e+01 -2.15565e+01  6.82849e+01             
       O -8.60167e+01 -2.01294e+01  6.57786e+01             
       H -8.61595e+01 -1.92649e+01  6.53909e+01             
       H -8.58144e+01 -1.99368e+01  6.67482e+01             
       O -9.41930e+01 -3.58193e+01  5.82670e+01             
       H -9.44147e+01 -3.51523e+01  7.13439e+01             
       H -9.49892e+01 -4.57292e+01  4.91457e+01             
       O -7.71410e+01 -3.10591e+01  7.07365e+01             
       H -7.69252e+01 -3.15043e+01  7.15899e+01             
       H -7.78198e+01 -3.15322e+01  7.01260e+01             
       O -8.96428e+01 -2.57492e+01  6.08784e+01             
       H -8.87393e+01 -2.60845e+01  6.08993e+01             
       H -8.96265e+01 -2.48384e+01  6.13602e+01             
       O -1.08018e+02 -2.04214e+01  6.49086e+01             
       H -1.08896e+02 -2.06610e+01  6.50852e+01             
       H -1.07990e+02 -2.03930e+01  6.39067e+01             
       O -7.24574e+01 -3.35163e+01  5.79221e+01             
       H -7.21220e+01 -3.43708e+01  5.76350e+01             
       H -7.17512e+01 -3.29421e+01  5.81982e+01             
       O -9.63225e+01 -2.31654e+01  3.64523e+01             
       H -9.64278e+01 -2.22050e+01  3.67861e+01             
       H -9.68776e+01 -2.36482e+01  3.70637e+01             
       O -8.72809e+01 -2.98979e+01  3.20174e+01             
       H -7.45239e+01 -1.51420e+01  4.79521e+01             
       H -8.81496e+01 -3.03227e+01  3.22530e+01             
       O -9.08379e+01 -2.47211e+01  5.86485e+01             
       H -9.02164e+01 -2.53404e+01  5.90711e+01             
       H -9.04183e+01 -2.38621e+01  5.88599e+01             
       O -8.28222e+01 -1.64847e+01  8.56817e+01             
       H -8.20264e+01 -1.68101e+01  8.51972e+01             
       H -8.33989e+01 -1.59713e+01  8.51048e+01             
