192                                                         
# CELL(abcABC):   12.41850    12.41850    12.41850    90.00000    90.00000    90.00000  Step:           0  Bead:       0 x_centroid{angstrom}  cell{angstrom}   
       O -8.00353e+01 -1.23248e+01  6.73568e+01             
       H -7.99304e+01 -1.32037e+01  6.70073e+01             
       H -7.91831e+01 -1.21194e+01  6.77973e+01             
       O -7.59575e+01 -1.35467e+01  6.18690e+01             
       H -6.68957e+01 -1.95644e+01  5.99635e+01             
       H -7.55483e+01 -1.30529e+01  6.11223e+01             
       O -7.76870e+01 -2.34684e+01  5.57177e+01             
       H -7.72272e+01 -1.12396e+01  5.48943e+01             
       H -7.71027e+01 -2.37399e+01  5.64682e+01             
       O -6.24510e+01 -2.11823e+01  5.38840e+01             
       H -6.22161e+01 -2.10539e+01  5.48427e+01             
       H -6.34187e+01 -2.11877e+01  5.38340e+01             
       O -6.12585e+01 -2.25081e+01  5.19514e+01             
       H -6.15627e+01 -2.30649e+01  5.12496e+01             
       H -6.20736e+01 -2.21674e+01  5.23117e+01             
       O -6.22762e+01 -1.64565e+01  6.79144e+01             
       H -6.24790e+01 -1.59249e+01  6.71246e+01             
       H -6.31335e+01 -1.68954e+01  6.81442e+01             
       O -7.72026e+01 -2.38004e+01  3.84313e+01             
       H -7.79996e+01 -2.33873e+01  3.81432e+01             
       H -6.72035e+01  1.46795e+00  5.29798e+01             
       O -5.62301e+01 -1.47921e+01  7.25695e+01             
       H -5.57423e+01 -1.42244e+01  7.31750e+01             
       H -5.71294e+01 -2.67976e+01  7.26314e+01             
       O -7.74857e+01 -8.53622e+00  4.10857e+01             
       H -7.79751e+01 -8.52413e+00  4.19367e+01             
       H -7.80917e+01 -9.10327e+00  4.05838e+01             
       O -6.86022e+01 -2.39221e+01  5.80630e+01             
       H -6.94244e+01 -2.36247e+01  5.76600e+01             
       H -6.85109e+01 -2.48937e+01  5.79812e+01             
       O -7.21769e+01 -8.36008e+00  6.06037e+01             
       H -7.21556e+01 -8.33592e+00  6.15741e+01             
       H -7.30562e+01 -8.14862e+00  6.02809e+01             
       O -6.85062e+01 -1.04659e+01  4.88197e+01             
       H -6.90943e+01 -1.02785e+01  4.95943e+01             
       H -5.95902e+01 -1.44562e+01  4.92170e+01             
       O -6.41238e+01 -3.10452e+01  4.76595e+01             
       H -6.35780e+01 -3.13700e+01  4.68721e+01             
       H -6.18893e+01 -2.71640e+01  6.21432e+01             
       O -7.43626e+01 -1.93007e+01  4.60954e+01             
       H -7.42795e+01 -1.83274e+01  4.60290e+01             
       H -7.42886e+01 -1.98100e+01  4.52843e+01             
       O -5.40161e+01 -2.69176e+01  6.28670e+01             
       H -5.39549e+01 -2.61573e+01  6.22835e+01             
       H -5.32448e+01 -2.74938e+01  6.27827e+01             
       O -7.04487e+01 -1.26703e+01  6.32377e+01             
       H -7.06924e+01 -1.26791e+01  6.22991e+01             
       H -7.00916e+01 -1.35338e+01  6.33471e+01             
       O -7.44336e+01 -1.60713e+01  4.59851e+01             
       H -7.45845e+01 -2.84365e+01  4.50229e+01             
       H -7.53379e+01 -1.59063e+01  4.63573e+01             
       O -7.22451e+01 -2.51751e+01  4.42912e+01             
       H -7.22872e+01 -2.51274e+01  4.52610e+01             
       H -7.15392e+01 -2.45721e+01  4.41066e+01             
       O -7.61015e+01 -1.17532e+01  5.35381e+01             
       H -7.52880e+01 -1.21288e+01  5.40264e+01             
       H -7.67732e+01 -1.25353e+01  5.35650e+01             
       O -6.65219e+01  8.30728e+00  5.38670e+01             
       H -5.46447e+01 -2.42251e+01  4.89360e+01             
       H -6.64016e+01  7.54168e+00  5.33344e+01             
       O -7.20909e+01 -2.06387e+01  6.33110e+01             
       H -6.40263e+01 -2.78547e+01  6.08999e+01             
       H -8.51607e+01 -2.13208e+01  6.36850e+01             
       O -6.69072e+01 -3.08899e+01  5.68053e+01             
       H -6.61954e+01 -3.03131e+01  5.71525e+01             
       H -6.77386e+01 -3.06205e+01  5.72163e+01             
       O -6.90929e+01 -1.67440e+01  5.79141e+01             
       H -6.92908e+01 -1.70837e+01  5.87847e+01             
       H -6.99350e+01 -1.66210e+01  5.74931e+01             
       O -6.13340e+01 -4.38617e+01  5.24145e+01             
       H -6.10576e+01 -4.32350e+01  5.31111e+01             
       H -6.17918e+01 -4.46617e+01  6.53024e+01             
       O -7.41872e+01 -8.79685e+00  5.65267e+01             
       H -7.31611e+01 -8.77264e+00  5.64978e+01             
       H -7.43325e+01 -9.68792e+00  5.70096e+01             
       O -6.65738e+01 -2.07101e+01  5.55909e+01             
       H -6.65303e+01 -1.99692e+01  5.62025e+01             
       H -6.65815e+01 -2.15200e+01  5.61509e+01             
       O -6.77008e+01 -1.83315e+01  7.50540e+01             
       H -6.74408e+01 -1.79914e+01  7.41746e+01             
       H -6.85885e+01 -1.79395e+01  7.52233e+01             
       O -8.44603e+01 -1.67345e+01  4.72539e+01             
       H -8.51872e+01 -1.63666e+01  4.67811e+01             
       H -8.47803e+01 -1.71013e+01  4.81418e+01             
       O -6.24267e+01 -6.79249e+00  6.22516e+01             
       H -6.26697e+01 -6.76938e+00  6.31898e+01             
       H -6.30751e+01 -6.30861e+00  6.16971e+01             
       O -6.55239e+01 -1.40021e+01  5.31265e+01             
       H -6.60231e+01 -1.39398e+01  5.22657e+01             
       H -6.58163e+01 -1.48871e+01  4.09552e+01             
       O -6.15021e+01 -1.31479e+01  2.96658e+01             
       H -6.06323e+01 -1.27972e+01  2.91959e+01             
       H -7.35688e+01 -1.32578e+01  3.05349e+01             
       O -5.47695e+01 -1.71028e+01  3.53388e+01             
       H -5.54756e+01 -1.64734e+01  3.55143e+01             
       H -5.43128e+01 -1.67385e+01  3.46121e+01             
       O -7.18457e+01 -2.43745e+01  4.07884e+01             
       H -7.15033e+01 -2.49122e+01  4.00151e+01             
       H -7.23733e+01 -2.36713e+01  5.28119e+01             
       O -5.65595e+01 -1.49842e+01  3.95273e+01             
       H -6.72326e+01 -1.01825e+01  4.57282e+01             
       H -5.68544e+01 -1.58324e+01  3.90934e+01             
       O -6.80136e+01 -2.64206e+01  5.74828e+01             
       H -6.80633e+01 -2.61785e+01  5.65396e+01             
       H -6.85759e+01 -2.72546e+01  5.76875e+01             
       O -5.92685e+01 -2.02334e+01  4.42674e+01             
       H -5.89087e+01 -1.97454e+01  4.50393e+01             
       H -5.84175e+01 -2.04784e+01  4.37777e+01             
       O -5.99321e+01 -2.82375e+01  5.26880e+01             
       H -5.97397e+01 -2.87658e+01  5.34711e+01             
       H -5.90352e+01 -2.81242e+01  5.23132e+01             
       O -6.56346e+01 -5.93817e+00  6.44480e+01             
       H -6.63649e+01 -6.08339e+00  6.38325e+01             
       H -6.53349e+01 -6.74528e+00  6.48569e+01             
       O -5.82958e+01  5.71674e+00  7.12966e+01             
       H -5.85855e+01  5.08343e+00  7.20054e+01             
       H -5.86858e+01  6.55106e+00  7.16065e+01             
       O -6.11155e+01 -2.75586e+01  6.25693e+01             
       H -7.70088e+01 -2.36005e+01  3.93934e+01             
       H -6.11429e+01 -2.73796e+01  6.34890e+01             
       O -6.63213e+01 -2.02245e+01  6.02528e+01             
       H -5.56517e+01 -1.48090e+01  3.92295e+01             
       H -6.62229e+01 -2.08288e+01  5.94987e+01             
       O -5.87905e+01 -1.45124e+01  4.86844e+01             
       H -6.74119e+01 -3.83922e+00  5.40848e+01             
       H -5.89981e+01 -1.52985e+01  4.81708e+01             
       O -6.54646e+01 -2.63589e+01  5.84964e+01             
       H -7.88098e+01 -2.64771e+01  7.06685e+01             
       H -6.39792e+01 -1.28584e+01  6.23883e+01             
       O -8.90092e+01 -1.65018e+01  6.31373e+01             
       H -8.94778e+01 -1.73001e+01  6.34149e+01             
       H -8.82058e+01 -1.64732e+01  6.36325e+01             
       O -6.64090e+01 -3.72525e+01  4.85936e+01             
       H -6.65759e+01 -3.72450e+01  4.76219e+01             
       H -7.24514e+01 -1.97718e+01  6.35249e+01             
       O -6.64349e+01 -9.64215e+00  4.56008e+01             
       H -6.57454e+01 -1.02619e+01  4.55102e+01             
       H -8.62016e+01 -2.44516e+01  2.26596e+01             
       O -7.65320e+01 -2.42056e+01  4.56067e+01             
       H -7.59563e+01 -2.39872e+01  4.63813e+01             
       H -7.71244e+01 -2.49328e+01  4.57455e+01             
       O -7.00478e+01 -2.36129e+01  4.31374e+01             
       H -7.07324e+01 -2.40076e+01  4.24923e+01             
       H -6.92802e+01 -2.42228e+01  4.30568e+01             
       O -5.04055e+01 -2.75469e+01  5.29219e+01             
       H -4.98236e+01 -1.44648e+01  5.33092e+01             
       H -5.12110e+01 -2.71227e+01  5.25455e+01             
       O -5.99750e+01 -5.39161e+00  5.50748e+01             
       H -4.84172e+01 -4.98572e+00  5.54618e+01             
       H -5.98578e+01 -6.21183e+00  5.55801e+01             
       O -6.70010e+01  2.19720e+00  5.24039e+01             
       H -6.48419e+01 -3.16228e+01  4.78638e+01             
       H -6.82584e+01  2.86438e+00  4.85671e+01             
       O -7.00499e+01 -1.73300e+01  5.10310e+01             
       H -6.99479e+01 -1.80634e+01  5.16577e+01             
       H -7.09537e+01 -1.74482e+01  5.06827e+01             
       O -7.06960e+01 -1.03908e+01  4.70177e+01             
       H -7.12987e+01 -2.21522e+01  4.74168e+01             
       H -6.99042e+01 -1.05640e+01  4.75203e+01             
       O -7.75372e+01 -1.62586e+01  5.63577e+01             
       H -7.73599e+01 -1.53048e+01  5.65028e+01             
       H -7.82782e+01 -1.62732e+01  5.56700e+01             
       O -6.94005e+01 -2.09650e+01  5.52248e+01             
       H -6.94602e+01 -2.18688e+01  5.53663e+01             
       H -6.84771e+01 -2.06530e+01  5.53193e+01             
       O -7.66180e+01 -2.82338e+01  4.76459e+01             
       H -7.66498e+01 -2.92140e+01  6.02102e+01             
       H -7.76584e+01 -3.94558e+01  4.67697e+01             
       O -6.28590e+01 -2.22070e+01  6.16342e+01             
       H -6.35603e+01 -2.24064e+01  6.23154e+01             
       H -6.27902e+01 -2.12435e+01  6.16336e+01             
       O -6.97973e+01 -2.21235e+01  5.12234e+01             
       H -7.05282e+01 -2.15405e+01  5.14055e+01             
       H -7.01118e+01 -2.29478e+01  5.14999e+01             
       O -8.33955e+01 -1.55015e+01  5.60489e+01             
       H -8.39934e+01 -1.48585e+01  5.64962e+01             
       H -8.39917e+01 -1.60512e+01  5.55406e+01             
       O -5.97940e+01 -2.50810e+01  4.69585e+01             
       H -5.91791e+01 -2.42762e+01  4.69449e+01             
       H -5.93268e+01 -2.58196e+01  4.75304e+01             
       O -8.18615e+01 -1.86941e+01  2.84789e+01             
       H -8.27440e+01 -1.86814e+01  2.88351e+01             
       H -8.16032e+01 -1.96171e+01  2.86278e+01             
       O -7.47386e+01 -2.42170e+01  2.26803e+01             
       H -5.54997e+01 -9.96282e+00  3.97138e+01             
       H -7.48788e+01 -2.35031e+01  2.33506e+01             
       O -7.27253e+01 -1.75623e+01  4.98549e+01             
       H -7.32486e+01 -1.83400e+01  4.98699e+01             
       H -7.31844e+01 -1.68196e+01  5.02738e+01             
       O -6.88120e+01 -1.48342e+01  7.94029e+01             
       H -6.91122e+01 -1.49651e+01  7.84548e+01             
       H -6.94752e+01 -1.51876e+01  8.00310e+01             
192                                                         
# CELL(abcABC):   12.41850    12.41850    12.41850    90.00000    90.00000    90.00000  Step:      200000  Bead:       0 x_centroid{angstrom}  cell{angstrom}   
       O -9.02262e+01 -1.69416e+01  7.03150e+01             
       H -9.08214e+01 -1.61665e+01  7.01677e+01             
       H -9.02472e+01 -1.74414e+01  6.94677e+01             
       O -8.83028e+01 -1.64312e+01  6.29374e+01             
       H -7.42129e+01 -2.40903e+01  6.02947e+01             
       H -8.91859e+01 -1.66843e+01  6.32892e+01             
       O -8.99521e+01 -2.57027e+01  5.95597e+01             
       H -8.93326e+01 -1.40612e+01  5.96033e+01             
       H -8.97486e+01 -2.51246e+01  6.03146e+01             
       O -8.03006e+01 -2.88639e+01  6.02952e+01             
       H -8.03653e+01 -2.80365e+01  6.09292e+01             
       H -7.94054e+01 -2.92079e+01  6.03815e+01             
       O -7.15265e+01 -2.83111e+01  6.13357e+01             
       H -7.14690e+01 -2.75595e+01  6.18841e+01             
       H -7.19104e+01 -2.79756e+01  6.04765e+01             
       O -6.95964e+01 -2.34752e+01  6.90628e+01             
       H -6.97324e+01 -2.41957e+01  6.96973e+01             
       H -7.01438e+01 -2.37616e+01  6.82902e+01             
       O -9.00545e+01 -2.42941e+01  4.46687e+01             
       H -8.98401e+01 -2.48881e+01  4.54070e+01             
       H -8.50621e+01 -1.05326e+00  5.50694e+01             
       O -6.84386e+01 -1.45342e+01  8.08635e+01             
       H -6.78456e+01 -1.42158e+01  8.15483e+01             
       H -6.86420e+01 -2.62526e+01  8.02191e+01             
       O -9.72308e+01 -8.23149e+00  4.11863e+01             
       H -9.80961e+01 -8.40691e+00  4.08022e+01             
       H -9.73170e+01 -8.59227e+00  4.20919e+01             
       O -7.97444e+01 -2.60930e+01  6.42647e+01             
       H -7.89465e+01 -2.55537e+01  6.42185e+01             
       H -7.95261e+01 -2.69920e+01  6.45582e+01             
       O -8.70674e+01 -1.00178e+01  6.33069e+01             
       H -8.73209e+01 -9.08034e+00  6.35182e+01             
       H -8.67723e+01 -9.94792e+00  6.23467e+01             
       O -7.05208e+01 -1.35263e+01  5.06966e+01             
       H -7.04160e+01 -1.41928e+01  5.14584e+01             
       H -6.71660e+01 -1.95850e+01  5.34164e+01             
       O -7.49679e+01 -3.37917e+01  5.40569e+01             
       H -7.54755e+01 -3.29667e+01  5.42601e+01             
       H -7.43179e+01 -2.74115e+01  6.90924e+01             
       O -8.65829e+01 -2.23350e+01  4.81294e+01             
       H -8.73281e+01 -2.19752e+01  4.76432e+01             
       H -8.57095e+01 -2.20945e+01  4.76341e+01             
       O -6.09289e+01 -3.05965e+01  6.95985e+01             
       H -6.12693e+01 -2.96754e+01  6.94814e+01             
       H -6.03407e+01 -3.06022e+01  6.88704e+01             
       O -8.86243e+01 -1.34178e+01  6.76286e+01             
       H -8.87283e+01 -1.29933e+01  6.67522e+01             
       H -8.92681e+01 -1.30918e+01  6.82529e+01             
       O -8.75309e+01 -1.94097e+01  5.12137e+01             
       H -8.69089e+01 -3.15448e+01  5.06101e+01             
       H -8.84088e+01 -1.94168e+01  5.07319e+01             
       O -8.08187e+01 -3.42204e+01  5.04458e+01             
       H -8.13496e+01 -3.33961e+01  5.04567e+01             
       H -8.13475e+01 -3.48442e+01  5.10416e+01             
       O -9.01635e+01 -1.93524e+01  6.22613e+01             
       H -9.03349e+01 -1.94063e+01  6.12567e+01             
       H -9.07024e+01 -1.99603e+01  6.27864e+01             
       O -7.62423e+01  3.96786e+00  5.97123e+01             
       H -6.65269e+01 -2.65083e+01  5.89883e+01             
       H -7.70739e+01  3.77032e+00  6.02261e+01             
       O -8.49610e+01 -1.89699e+01  7.19171e+01             
       H -7.93553e+01 -2.96543e+01  6.71043e+01             
       H -9.75988e+01 -1.85423e+01  7.10910e+01             
       O -7.75876e+01 -3.68856e+01  6.32345e+01             
       H -7.80702e+01 -3.62888e+01  6.26070e+01             
       H -7.68866e+01 -3.74172e+01  6.28041e+01             
       O -7.66462e+01 -1.90317e+01  6.69250e+01             
       H -7.61589e+01 -1.82599e+01  6.66204e+01             
       H -7.74819e+01 -1.91081e+01  6.64139e+01             
       O -7.24745e+01 -5.16155e+01  5.90795e+01             
       H -7.16029e+01 -5.12812e+01  5.87186e+01             
       H -7.28204e+01 -5.22096e+01  7.07855e+01             
       O -8.26770e+01 -1.53049e+01  6.52090e+01             
       H -8.34296e+01 -1.55706e+01  6.56987e+01             
       H -8.23110e+01 -1.61833e+01  6.49102e+01             
       O -8.23158e+01 -3.10252e+01  5.98213e+01             
       H -8.21578e+01 -3.12163e+01  5.88555e+01             
       H -8.19783e+01 -3.01356e+01  6.00196e+01             
       O -7.89502e+01 -2.07255e+01  7.69125e+01             
       H -7.82628e+01 -2.14047e+01  7.71869e+01             
       H -7.97331e+01 -2.11035e+01  7.65244e+01             
       O -9.48907e+01 -2.29081e+01  4.77680e+01             
       H -9.45097e+01 -2.25201e+01  4.85605e+01             
       H -9.52858e+01 -2.22585e+01  4.72071e+01             
       O -7.57000e+01 -7.39462e+00  6.95409e+01             
       H -7.63034e+01 -7.25866e+00  6.87631e+01             
       H -7.48420e+01 -7.04972e+00  6.93161e+01             
       O -7.47811e+01 -1.73677e+01  6.53475e+01             
       H -7.51960e+01 -1.66878e+01  6.48017e+01             
       H -7.49824e+01 -1.81809e+01  5.23692e+01             
       O -7.03595e+01 -1.69158e+01  3.14012e+01             
       H -7.11102e+01 -1.69669e+01  3.08264e+01             
       H -8.23641e+01 -1.60187e+01  3.12831e+01             
       O -6.59013e+01 -1.62581e+01  3.97324e+01             
       H -6.67161e+01 -1.67326e+01  3.94889e+01             
       H -6.57660e+01 -1.63971e+01  4.06924e+01             
       O -8.07274e+01 -2.67445e+01  4.93186e+01             
       H -8.02000e+01 -2.66537e+01  5.01196e+01             
       H -8.16661e+01 -2.65789e+01  6.20425e+01             
       O -6.61839e+01 -1.91208e+01  4.72841e+01             
       H -7.52149e+01 -1.33632e+01  4.90601e+01             
       H -6.58493e+01 -1.86621e+01  4.65367e+01             
       O -8.14312e+01 -2.54263e+01  6.62191e+01             
       H -8.21457e+01 -2.61480e+01  6.61176e+01             
       H -8.07975e+01 -2.57191e+01  6.54899e+01             
       O -6.91483e+01 -2.12360e+01  5.40747e+01             
       H -7.00066e+01 -2.11525e+01  5.45628e+01             
       H -6.93804e+01 -2.18005e+01  5.33354e+01             
       O -6.62465e+01 -3.50673e+01  6.15076e+01             
       H -6.71358e+01 -3.48112e+01  6.17459e+01             
       H -6.62878e+01 -3.51888e+01  6.05455e+01             
       O -7.92429e+01 -1.01719e+01  7.10996e+01             
       H -7.88124e+01 -1.07795e+01  7.04248e+01             
       H -8.01735e+01 -1.03746e+01  7.09871e+01             
       O -6.64692e+01  4.86720e+00  8.18894e+01             
       H -6.64288e+01  4.63834e+00  8.09007e+01             
       H -6.64386e+01  4.01956e+00  8.23777e+01             
       O -7.41651e+01 -2.80092e+01  6.98002e+01             
       H -8.92661e+01 -2.37171e+01  4.46816e+01             
       H -7.47492e+01 -2.78348e+01  7.05965e+01             
       O -7.43422e+01 -2.50516e+01  6.03147e+01             
       H -6.70964e+01 -1.90584e+01  4.71586e+01             
       H -7.36025e+01 -2.55311e+01  5.97529e+01             
       O -6.75790e+01 -1.90655e+01  5.40919e+01             
       H -7.65620e+01 -7.91465e+00  5.90295e+01             
       H -6.83123e+01 -1.97355e+01  5.44080e+01             
       O -7.95453e+01 -2.28103e+01  6.74915e+01             
       H -9.27784e+01 -2.24408e+01  7.95260e+01             
       H -7.57819e+01 -1.70465e+01  6.21808e+01             
       O -9.97942e+01 -1.78788e+01  7.32351e+01             
       H -1.00032e+02 -1.87386e+01  7.27387e+01             
       H -9.88741e+01 -1.79084e+01  7.31826e+01             
       O -7.94650e+01 -3.94944e+01  5.84495e+01             
       H -7.98675e+01 -4.01249e+01  5.90555e+01             
       H -8.40131e+01 -1.87342e+01  7.22602e+01             
       O -7.57229e+01 -1.36083e+01  4.98868e+01             
       H -7.57314e+01 -1.45564e+01  5.00384e+01             
       H -9.80502e+01 -2.46054e+01  2.76445e+01             
       O -8.72329e+01 -2.51841e+01  5.25650e+01             
       H -8.74598e+01 -2.42617e+01  5.22604e+01             
       H -8.74106e+01 -2.56473e+01  5.17336e+01             
       O -8.22399e+01 -3.18419e+01  5.01637e+01             
       H -8.23959e+01 -3.16433e+01  4.92011e+01             
       H -8.31058e+01 -3.15328e+01  5.05514e+01             
       O -5.96415e+01 -3.38471e+01  5.91349e+01             
       H -5.95414e+01 -2.16210e+01  5.82069e+01             
       H -5.99761e+01 -3.29047e+01  5.92123e+01             
       O -6.98606e+01 -1.30114e+01  5.86081e+01             
       H -5.66926e+01 -1.35236e+01  5.89372e+01             
       H -6.99981e+01 -1.23208e+01  5.92902e+01             
       O -8.58655e+01 -1.59070e+00  5.52132e+01             
       H -7.56484e+01 -3.43190e+01  5.35463e+01             
       H -7.12350e+01 -5.30004e-01  5.09978e+01             
       O -8.14999e+01 -1.90363e+01  5.72586e+01             
       H -8.05745e+01 -1.92308e+01  5.72297e+01             
       H -8.18392e+01 -1.82205e+01  5.67969e+01             
       O -8.21001e+01 -1.07649e+01  5.23018e+01             
       H -8.30736e+01 -2.31142e+01  5.22709e+01             
       H -8.18723e+01 -1.15580e+01  5.28778e+01             
       O -8.51865e+01 -2.33861e+01  5.71839e+01             
       H -8.53263e+01 -2.42094e+01  5.76245e+01             
       H -8.60722e+01 -2.30965e+01  5.69050e+01             
       O -8.42561e+01 -2.42132e+01  6.72001e+01             
       H -8.46618e+01 -2.36263e+01  6.77932e+01             
       H -8.43731e+01 -2.38959e+01  6.62664e+01             
       O -9.13554e+01 -2.88147e+01  5.49925e+01             
       H -9.20490e+01 -2.81905e+01  6.76629e+01             
       H -9.21992e+01 -3.57308e+01  5.58876e+01             
       O -7.21738e+01 -1.81898e+01  6.29612e+01             
       H -7.24686e+01 -1.79323e+01  6.38598e+01             
       H -7.20285e+01 -1.72982e+01  6.24663e+01             
       O -8.34572e+01 -2.08924e+01  5.63616e+01             
       H -8.27878e+01 -2.02868e+01  5.67861e+01             
       H -8.32120e+01 -2.18442e+01  5.65422e+01             
       O -8.97225e+01 -2.28323e+01  6.55253e+01             
       H -8.99195e+01 -2.33156e+01  6.47625e+01             
       H -9.03961e+01 -2.30132e+01  6.61603e+01             
       O -7.24965e+01 -2.90319e+01  5.44504e+01             
       H -7.31437e+01 -2.94206e+01  5.37887e+01             
       H -7.27828e+01 -2.81104e+01  5.46695e+01             
       O -1.00230e+02 -2.25766e+01  3.16142e+01             
       H -1.00154e+02 -2.22430e+01  3.06794e+01             
       H -1.00335e+02 -2.17667e+01  3.21401e+01             
       O -8.49714e+01 -2.40209e+01  2.72109e+01             
       H -7.41739e+01 -1.35813e+01  4.23710e+01             
       H -8.55711e+01 -2.33875e+01  2.67072e+01             
       O -8.83306e+01 -1.55489e+01  5.95052e+01             
       H -8.89249e+01 -1.60605e+01  5.89355e+01             
       H -8.79580e+01 -1.61885e+01  6.00935e+01             
       O -8.11895e+01 -1.73928e+01  8.91970e+01             
       H -8.11074e+01 -1.80057e+01  8.99321e+01             
       H -8.13962e+01 -1.79661e+01  8.83971e+01             
