192                                                         
# CELL(abcABC):   12.41850    12.41850    12.41850    90.00000    90.00000    90.00000  Step:           0  Bead:       0 x_centroid{angstrom}  cell{angstrom}   
       O -7.64169e+01 -1.21597e+01  6.35055e+01             
       H -7.71198e+01 -1.20490e+01  6.28520e+01             
       H -7.55291e+01 -1.19493e+01  6.32348e+01             
       O -6.90053e+01 -8.41732e+00  6.15479e+01             
       H -6.39273e+01 -1.84321e+01  5.29629e+01             
       H -6.86578e+01 -8.19285e+00  6.24319e+01             
       O -6.87195e+01 -2.36714e+01  5.13247e+01             
       H -6.85705e+01 -1.09224e+01  5.22539e+01             
       H -6.86293e+01 -2.45943e+01  5.14245e+01             
       O -5.55287e+01 -2.22736e+01  5.35897e+01             
       H -5.59083e+01 -2.23855e+01  5.44706e+01             
       H -5.46320e+01 -2.24897e+01  5.36551e+01             
       O -5.54608e+01 -2.04460e+01  5.14116e+01             
       H -5.57224e+01 -1.95629e+01  5.17558e+01             
       H -5.57754e+01 -2.10461e+01  5.20865e+01             
       O -5.86215e+01 -1.87318e+01  6.38680e+01             
       H -5.93152e+01 -1.81465e+01  6.41697e+01             
       H -5.89157e+01 -1.91545e+01  6.30940e+01             
       O -6.68800e+01 -2.14538e+01  4.49905e+01             
       H -6.70657e+01 -2.08361e+01  4.57212e+01             
       H -5.81957e+01  1.40808e+00  5.10350e+01             
       O -5.10047e+01 -1.40402e+01  6.80313e+01             
       H -5.17695e+01 -1.35905e+01  6.84664e+01             
       H -5.05569e+01 -2.71557e+01  6.85909e+01             
       O -7.09560e+01 -8.60004e+00  4.07560e+01             
       H -7.15800e+01 -8.55110e+00  4.14797e+01             
       H -7.09434e+01 -7.80815e+00  4.01943e+01             
       O -6.55688e+01 -2.39142e+01  5.36080e+01             
       H -6.50802e+01 -2.40288e+01  5.44133e+01             
       H -6.48746e+01 -2.40598e+01  5.29618e+01             
       O -7.06972e+01 -4.34670e+00  5.91824e+01             
       H -7.08233e+01 -4.05370e+00  6.01044e+01             
       H -6.97915e+01 -4.56731e+00  5.91114e+01             
       O -6.44357e+01 -8.98132e+00  4.74526e+01             
       H -6.46192e+01 -8.69403e+00  4.83841e+01             
       H -5.64404e+01 -1.15015e+01  4.79615e+01             
       O -6.03176e+01 -2.88603e+01  4.48124e+01             
       H -5.94559e+01 -2.86244e+01  4.51896e+01             
       H -5.86368e+01 -2.51913e+01  6.03285e+01             
       O -7.01853e+01 -1.94495e+01  4.53038e+01             
       H -6.92994e+01 -1.90447e+01  4.52831e+01             
       H -7.06682e+01 -1.87801e+01  4.57962e+01             
       O -5.03259e+01 -2.29919e+01  5.83250e+01             
       H -5.07141e+01 -2.23414e+01  5.89786e+01             
       H -4.94402e+01 -2.26865e+01  5.81593e+01             
       O -6.62068e+01 -1.11055e+01  6.22067e+01             
       H -6.68924e+01 -1.08455e+01  6.28033e+01             
       H -6.66492e+01 -1.11600e+01  6.13988e+01             
       O -6.87982e+01 -1.08695e+01  4.49329e+01             
       H -6.81174e+01 -2.25605e+01  4.48346e+01             
       H -6.93202e+01 -1.05988e+01  4.57345e+01             
       O -6.79964e+01 -2.56864e+01  4.07856e+01             
       H -6.72915e+01 -2.51570e+01  4.12117e+01             
       H -6.76938e+01 -2.66164e+01  4.08626e+01             
       O -7.16127e+01 -1.30574e+01  5.28106e+01             
       H -7.11769e+01 -1.29320e+01  5.36597e+01             
       H -7.18814e+01 -1.21732e+01  5.25602e+01             
       O -6.57165e+01  8.06629e+00  4.54852e+01             
       H -4.69270e+01 -2.12564e+01  4.64031e+01             
       H -6.51959e+01  8.48391e+00  4.48159e+01             
       O -6.33982e+01 -1.75394e+01  6.04080e+01             
       H -6.15569e+01 -1.98606e+01  5.57973e+01             
       H -7.49970e+01 -1.73798e+01  6.08444e+01             
       O -6.01956e+01 -2.79059e+01  5.44177e+01             
       H -6.06340e+01 -2.82163e+01  5.52625e+01             
       H -6.02183e+01 -2.69173e+01  5.45169e+01             
       O -6.79777e+01 -1.80100e+01  5.71630e+01             
       H -6.71786e+01 -1.75049e+01  5.74333e+01             
       H -6.84339e+01 -1.72864e+01  5.66630e+01             
       O -6.11504e+01 -4.17899e+01  5.18155e+01             
       H -6.06819e+01 -4.10960e+01  5.23302e+01             
       H -6.15555e+01 -4.11773e+01  6.35548e+01             
       O -6.55503e+01 -4.37545e+00  4.98227e+01             
       H -6.63202e+01 -4.53489e+00  4.93424e+01             
       H -6.56902e+01 -3.58918e+00  5.03748e+01             
       O -5.89187e+01 -2.15666e+01  5.63670e+01             
       H -5.81340e+01 -2.19908e+01  5.59877e+01             
       H -5.85106e+01 -2.08210e+01  5.69003e+01             
       O -6.46075e+01 -2.08837e+01  6.81489e+01             
       H -6.37039e+01 -2.05709e+01  6.80750e+01             
       H -6.46567e+01 -2.17207e+01  6.77318e+01             
       O -8.07810e+01 -1.36005e+01  4.53991e+01             
       H -8.09036e+01 -1.26849e+01  4.51704e+01             
       H -8.15718e+01 -1.41058e+01  4.55127e+01             
       O -5.90672e+01 -3.13707e+00  6.15646e+01             
       H -5.85657e+01 -2.89892e+00  6.23271e+01             
       H -5.97384e+01 -2.48180e+00  6.14459e+01             
       O -6.04394e+01 -1.22204e+01  4.77617e+01             
       H -6.03993e+01 -1.18437e+01  4.69174e+01             
       H -6.09076e+01 -1.16862e+01  3.59854e+01             
       O -5.74428e+01 -1.16579e+01  2.97547e+01             
       H -5.69405e+01 -1.23680e+01  2.92521e+01             
       H -6.97311e+01 -1.19060e+01  3.07049e+01             
       O -5.24538e+01 -1.59975e+01  2.98401e+01             
       H -5.20561e+01 -1.51227e+01  3.00847e+01             
       H -5.16990e+01 -1.64960e+01  2.93911e+01             
       O -6.49212e+01 -2.10452e+01  3.75504e+01             
       H -6.51589e+01 -2.20391e+01  3.76095e+01             
       H -6.53915e+01 -2.04458e+01  5.05309e+01             
       O -5.05655e+01 -1.34734e+01  3.47888e+01             
       H -6.39192e+01 -1.14223e+01  4.46529e+01             
       H -5.10134e+01 -1.26337e+01  3.46105e+01             
       O -6.16743e+01 -2.62618e+01  5.22465e+01             
       H -6.07040e+01 -2.61607e+01  5.23333e+01             
       H -6.21331e+01 -2.65538e+01  5.30394e+01             
       O -5.29343e+01 -1.46148e+01  3.94018e+01             
       H -5.29304e+01 -1.49086e+01  4.02895e+01             
       H -5.24063e+01 -1.37921e+01  3.93917e+01             
       O -5.57449e+01 -2.65861e+01  4.97374e+01             
       H -5.55900e+01 -2.60129e+01  4.89600e+01             
       H -5.49129e+01 -2.64766e+01  5.01664e+01             
       O -6.11625e+01 -6.89827e+00  5.73096e+01             
       H -6.20644e+01 -6.64710e+00  5.76120e+01             
       H -6.08992e+01 -7.64227e+00  5.78315e+01             
       O -5.15639e+01  5.79092e+00  7.05623e+01             
       H -5.13217e+01  6.40006e+00  7.12712e+01             
       H -5.22522e+01  6.25445e+00  7.00793e+01             
       O -5.77354e+01 -2.55008e+01  6.02316e+01             
       H -6.61396e+01 -2.12390e+01  4.44482e+01             
       H -5.77980e+01 -2.64797e+01  6.03336e+01             
       O -6.31559e+01 -1.80854e+01  5.34958e+01             
       H -4.96593e+01 -1.32390e+01  3.49161e+01             
       H -6.25488e+01 -1.76229e+01  5.28425e+01             
       O -5.57939e+01 -1.07613e+01  4.79698e+01             
       H -6.59304e+01 -3.68380e+00  4.61054e+01             
       H -5.61318e+01 -9.97300e+00  4.84928e+01             
       O -6.09399e+01 -2.53405e+01  5.55290e+01             
       H -7.33620e+01 -2.45589e+01  6.74318e+01             
       H -5.62239e+01 -7.85507e+00  6.08441e+01             
       O -8.76789e+01 -1.58288e+01  5.77816e+01             
       H -8.78055e+01 -1.51954e+01  5.84782e+01             
       H -8.67765e+01 -1.61998e+01  5.79252e+01             
       O -6.02368e+01 -3.37737e+01  4.67652e+01             
       H -6.00366e+01 -3.35947e+01  4.77248e+01             
       H -6.41633e+01 -1.72547e+01  6.08934e+01             
       O -6.46841e+01 -1.16853e+01  4.41450e+01             
       H -6.53580e+01 -1.17575e+01  4.48491e+01             
       H -7.91995e+01 -1.95951e+01  2.30538e+01             
       O -7.20961e+01 -2.40327e+01  4.52080e+01             
       H -7.19929e+01 -2.32138e+01  4.47779e+01             
       H -7.25890e+01 -2.46710e+01  4.46318e+01             
       O -6.14036e+01 -2.35323e+01  3.76156e+01             
       H -6.17718e+01 -2.26367e+01  3.75353e+01             
       H -6.05440e+01 -2.33285e+01  3.79861e+01             
       O -4.54314e+01 -2.74438e+01  5.13284e+01             
       H -4.56999e+01 -1.42039e+01  5.17763e+01             
       H -4.45409e+01 -2.72391e+01  5.09809e+01             
       O -5.62223e+01 -7.41158e+00  5.49947e+01             
       H -4.30523e+01 -7.12490e+00  5.55087e+01             
       H -5.58111e+01 -7.86313e+00  5.43057e+01             
       O -5.90109e+01  1.93003e+00  5.11749e+01             
       H -6.02397e+01 -2.98433e+01  4.48124e+01             
       H -6.45402e+01  4.20450e+00  4.68764e+01             
       O -6.81494e+01 -1.66189e+01  4.82050e+01             
       H -6.84026e+01 -1.60376e+01  4.89672e+01             
       H -6.76007e+01 -1.60212e+01  4.76683e+01             
       O -6.50700e+01 -6.47206e+00  3.93126e+01             
       H -6.52682e+01 -1.81578e+01  3.87039e+01             
       H -6.58406e+01 -6.74003e+00  3.97810e+01             
       O -7.00495e+01 -1.69151e+01  5.53159e+01             
       H -7.03175e+01 -1.78338e+01  5.51652e+01             
       H -7.06145e+01 -1.63960e+01  5.47585e+01             
       O -6.15494e+01 -2.30180e+01  5.41942e+01             
       H -6.16844e+01 -2.30169e+01  5.32653e+01             
       H -6.14871e+01 -2.21391e+01  5.45310e+01             
       O -7.43656e+01 -2.01418e+01  4.25054e+01             
       H -7.46097e+01 -1.93699e+01  5.44296e+01             
       H -7.42964e+01 -3.79976e+01  4.32542e+01             
       O -5.92795e+01 -2.06057e+01  6.17731e+01             
       H -5.82979e+01 -2.08216e+01  6.17040e+01             
       H -5.96985e+01 -2.12455e+01  6.23467e+01             
       O -6.19785e+01 -2.07235e+01  5.11706e+01             
       H -6.28924e+01 -2.08287e+01  5.08201e+01             
       H -6.17153e+01 -1.99568e+01  5.06155e+01             
       O -8.00237e+01 -1.63531e+01  5.37326e+01             
       H -7.91052e+01 -1.64232e+01  5.39968e+01             
       H -8.07100e+01 -1.67580e+01  5.43420e+01             
       O -5.34315e+01 -2.39114e+01  4.67719e+01             
       H -5.30486e+01 -2.31156e+01  4.70332e+01             
       H -5.44185e+01 -2.37042e+01  4.68539e+01             
       O -7.48168e+01 -1.49318e+01  2.48058e+01             
       H -7.52988e+01 -1.47049e+01  2.39963e+01             
       H -7.48667e+01 -1.42393e+01  2.54688e+01             
       O -6.74267e+01 -1.95814e+01  2.23859e+01             
       H -4.65145e+01 -9.94307e+00  3.95634e+01             
       H -6.76575e+01 -1.86347e+01  2.22379e+01             
       O -6.83795e+01 -1.77887e+01  5.13637e+01             
       H -6.82322e+01 -1.72048e+01  5.21107e+01             
       H -6.93627e+01 -1.79442e+01  5.13835e+01             
       O -6.65405e+01 -1.46866e+01  7.17303e+01             
       H -6.71206e+01 -1.42521e+01  7.12068e+01             
       H -6.58852e+01 -1.40981e+01  7.20566e+01             
192                                                         
# CELL(abcABC):   12.41850    12.41850    12.41850    90.00000    90.00000    90.00000  Step:      200000  Bead:       0 x_centroid{angstrom}  cell{angstrom}   
       O -8.86787e+01 -2.01726e+01  7.08395e+01             
       H -8.79130e+01 -2.07587e+01  7.08334e+01             
       H -8.94231e+01 -2.06136e+01  7.03814e+01             
       O -8.00513e+01 -1.45558e+01  6.65519e+01             
       H -7.89257e+01 -1.94416e+01  6.30236e+01             
       H -7.95026e+01 -1.40222e+01  6.72026e+01             
       O -7.83689e+01 -2.61445e+01  5.61033e+01             
       H -7.88835e+01 -1.32385e+01  5.67601e+01             
       H -7.76367e+01 -2.54630e+01  5.60357e+01             
       O -7.13533e+01 -2.16348e+01  5.91375e+01             
       H -7.20080e+01 -2.16150e+01  5.98486e+01             
       H -7.11981e+01 -2.26004e+01  5.89968e+01             
       O -6.87682e+01 -2.36026e+01  6.11049e+01             
       H -6.78549e+01 -2.32666e+01  6.12076e+01             
       H -6.89786e+01 -2.32835e+01  6.02061e+01             
       O -7.40249e+01 -2.17506e+01  6.78386e+01             
       H -7.44552e+01 -2.19764e+01  6.87050e+01             
       H -7.31463e+01 -2.21734e+01  6.79178e+01             
       O -8.26582e+01 -2.05819e+01  5.21118e+01             
       H -8.32285e+01 -1.99614e+01  5.24920e+01             
       H -7.27385e+01 -2.84917e+00  5.88310e+01             
       O -6.27620e+01 -1.55422e+01  7.56249e+01             
       H -6.23067e+01 -1.64427e+01  7.57126e+01             
       H -6.31593e+01 -2.76117e+01  7.65490e+01             
       O -8.54719e+01 -1.01495e+01  4.91745e+01             
       H -8.59475e+01 -1.10182e+01  4.92211e+01             
       H -8.46576e+01 -1.04059e+01  4.95754e+01             
       O -7.61863e+01 -2.78433e+01  5.92650e+01             
       H -7.68434e+01 -2.72284e+01  5.89293e+01             
       H -7.53084e+01 -2.76410e+01  5.89191e+01             
       O -8.09476e+01 -5.48196e+00  6.63190e+01             
       H -8.06806e+01 -5.23267e+00  6.54189e+01             
       H -8.11153e+01 -6.48607e+00  6.61569e+01             
       O -7.63834e+01 -1.17374e+01  5.60088e+01             
       H -7.59638e+01 -1.19945e+01  5.69191e+01             
       H -7.02095e+01 -1.19793e+01  5.31291e+01             
       O -7.40959e+01 -3.05985e+01  5.14777e+01             
       H -7.32030e+01 -3.06954e+01  5.19162e+01             
       H -6.97036e+01 -2.72736e+01  7.03582e+01             
       O -7.84158e+01 -2.16262e+01  5.66355e+01             
       H -7.79713e+01 -2.23129e+01  5.61480e+01             
       H -7.84196e+01 -2.08698e+01  5.60583e+01             
       O -5.92841e+01 -2.79938e+01  6.49133e+01             
       H -5.89275e+01 -2.72863e+01  6.43268e+01             
       H -5.88370e+01 -2.80254e+01  6.57950e+01             
       O -7.85142e+01 -1.69615e+01  6.91794e+01             
       H -7.82014e+01 -1.72720e+01  7.00573e+01             
       H -7.83030e+01 -1.59417e+01  6.91534e+01             
       O -8.36819e+01 -1.22030e+01  4.59363e+01             
       H -8.40824e+01 -2.55246e+01  4.60019e+01             
       H -8.26804e+01 -1.23398e+01  4.58482e+01             
       O -8.09545e+01 -3.07117e+01  4.49932e+01             
       H -8.11669e+01 -2.98192e+01  4.52109e+01             
       H -8.01445e+01 -3.06302e+01  4.45551e+01             
       O -8.77570e+01 -2.23331e+01  5.30544e+01             
       H -8.72631e+01 -2.21297e+01  5.38717e+01             
       H -8.80204e+01 -2.15172e+01  5.26124e+01             
       O -7.27904e+01  9.18913e+00  5.57429e+01             
       H -6.32292e+01 -1.83918e+01  5.27124e+01             
       H -7.19191e+01  8.71892e+00  5.57634e+01             
       O -7.70779e+01 -2.42995e+01  6.51650e+01             
       H -7.32027e+01 -2.17667e+01  5.83000e+01             
       H -9.03622e+01 -2.41900e+01  6.55209e+01             
       O -7.98994e+01 -2.92905e+01  6.03515e+01             
       H -7.92594e+01 -2.89550e+01  6.09235e+01             
       H -7.93997e+01 -2.94735e+01  5.95627e+01             
       O -8.06894e+01 -1.35276e+01  6.42400e+01             
       H -8.03370e+01 -1.28504e+01  6.36808e+01             
       H -8.01245e+01 -1.36523e+01  6.50334e+01             
       O -7.61180e+01 -4.54261e+01  6.36182e+01             
       H -7.68572e+01 -4.47848e+01  6.37244e+01             
       H -7.56135e+01 -4.51849e+01  7.52422e+01             
       O -7.72996e+01 -1.00553e+01  6.22460e+01             
       H -7.68820e+01 -9.37188e+00  6.28136e+01             
       H -7.78593e+01 -9.54774e+00  6.16071e+01             
       O -6.98995e+01 -2.81252e+01  6.72516e+01             
       H -6.94042e+01 -2.89346e+01  6.70384e+01             
       H -6.93287e+01 -2.74145e+01  6.70080e+01             
       O -7.38008e+01 -2.57564e+01  7.44044e+01             
       H -7.39847e+01 -2.52488e+01  7.52541e+01             
       H -7.39885e+01 -2.66259e+01  7.46568e+01             
       O -9.06674e+01 -1.62436e+01  5.30278e+01             
       H -9.00081e+01 -1.54665e+01  5.31622e+01             
       H -9.01537e+01 -1.70769e+01  5.30440e+01             
       O -7.16569e+01 -1.05500e+01  6.86002e+01             
       H -7.10088e+01 -1.08673e+01  6.78692e+01             
       H -7.16153e+01 -1.11818e+01  6.93308e+01             
       O -7.41097e+01 -1.33758e+01  5.44536e+01             
       H -7.34843e+01 -1.38518e+01  5.49438e+01             
       H -7.37048e+01 -1.28957e+01  4.12596e+01             
       O -6.92137e+01 -1.99063e+01  3.48839e+01             
       H -6.89406e+01 -1.91976e+01  3.42473e+01             
       H -8.24490e+01 -2.02429e+01  3.45446e+01             
       O -6.84675e+01 -2.07130e+01  4.19477e+01             
       H -6.89696e+01 -2.04586e+01  4.26983e+01             
       H -6.76031e+01 -2.02887e+01  4.20024e+01             
       O -7.61594e+01 -2.67843e+01  4.03843e+01             
       H -7.54325e+01 -2.67187e+01  4.10543e+01             
       H -7.64305e+01 -2.58258e+01  5.26573e+01             
       O -5.93453e+01 -1.85081e+01  4.05659e+01             
       H -7.66919e+01 -1.63399e+01  4.96974e+01             
       H -5.96219e+01 -1.86079e+01  4.15393e+01             
       O -7.26251e+01 -3.15673e+01  5.55692e+01             
       H -7.18559e+01 -3.19179e+01  5.61352e+01             
       H -7.32230e+01 -3.22628e+01  5.54992e+01             
       O -6.51164e+01 -1.76964e+01  4.67427e+01             
       H -6.43913e+01 -1.69949e+01  4.67059e+01             
       H -6.47205e+01 -1.85728e+01  4.66714e+01             
       O -6.56241e+01 -2.59735e+01  5.90438e+01             
       H -6.54179e+01 -2.56369e+01  5.99780e+01             
       H -6.66038e+01 -2.59419e+01  5.89525e+01             
       O -7.69822e+01 -1.25998e+01  6.13901e+01             
       H -7.67763e+01 -1.31822e+01  6.21106e+01             
       H -7.70286e+01 -1.17436e+01  6.18221e+01             
       O -6.27121e+01  1.34496e-01  7.10038e+01             
       H -6.31122e+01 -5.25016e-02  7.19091e+01             
       H -6.20671e+01 -5.73102e-01  7.08922e+01             
       O -6.97849e+01 -2.81499e+01  7.00035e+01             
       H -8.18557e+01 -2.06789e+01  5.26514e+01             
       H -6.98348e+01 -2.80570e+01  6.90074e+01             
       O -7.82785e+01 -1.89128e+01  6.33939e+01             
       H -5.92719e+01 -1.75549e+01  4.04456e+01             
       H -7.80492e+01 -1.82011e+01  6.27632e+01             
       O -7.01350e+01 -1.17758e+01  5.40525e+01             
       H -7.34159e+01 -3.99884e+00  5.56453e+01             
       H -6.91226e+01 -1.16168e+01  5.40877e+01             
       O -6.95035e+01 -2.67422e+01  6.04152e+01             
       H -8.23088e+01 -2.65584e+01  7.37060e+01             
       H -6.70440e+01 -1.52793e+01  6.63515e+01             
       O -9.58407e+01 -1.35456e+01  6.28697e+01             
       H -9.57970e+01 -1.26514e+01  6.32660e+01             
       H -9.67455e+01 -1.35012e+01  6.25236e+01             
       O -7.62647e+01 -3.07872e+01  5.34748e+01             
       H -7.56274e+01 -3.06210e+01  5.41813e+01             
       H -7.66143e+01 -2.34803e+01  6.53489e+01             
       O -7.76300e+01 -1.64933e+01  4.97807e+01             
       H -7.77571e+01 -1.61656e+01  5.07322e+01             
       H -9.40179e+01 -2.17883e+01  3.34236e+01             
       O -8.41702e+01 -2.93040e+01  4.70478e+01             
       H -8.33611e+01 -2.90579e+01  4.65638e+01             
       H -8.40293e+01 -2.93300e+01  4.80512e+01             
       O -8.12116e+01 -2.86958e+01  3.84817e+01             
       H -8.12239e+01 -2.78063e+01  3.88584e+01             
       H -8.02593e+01 -2.87709e+01  3.82095e+01             
       O -5.44375e+01 -3.40390e+01  6.01327e+01             
       H -5.47051e+01 -2.07364e+01  5.97834e+01             
       H -5.40347e+01 -3.44082e+01  5.93447e+01             
       O -7.36520e+01 -1.17218e+01  6.44618e+01             
       H -6.04132e+01 -1.12600e+01  6.43885e+01             
       H -7.44030e+01 -1.10546e+01  6.46729e+01             
       O -7.32030e+01 -2.22235e+00  5.82325e+01             
       H -7.40942e+01 -3.11926e+01  5.07069e+01             
       H -7.59210e+01 -2.30909e-02  5.54829e+01             
       O -8.24842e+01 -2.02637e+01  5.64518e+01             
       H -8.25625e+01 -2.12395e+01  5.64743e+01             
       H -8.18453e+01 -1.98651e+01  5.71169e+01             
       O -8.08875e+01 -1.29269e+01  4.59246e+01             
       H -8.07271e+01 -2.44205e+01  4.60341e+01             
       H -8.11815e+01 -1.31728e+01  4.68328e+01             
       O -8.32485e+01 -2.29544e+01  6.29522e+01             
       H -8.29447e+01 -2.22051e+01  6.35801e+01             
       H -8.24395e+01 -2.30646e+01  6.23874e+01             
       O -7.36743e+01 -3.10684e+01  5.89957e+01             
       H -7.29739e+01 -3.04123e+01  5.91185e+01             
       H -7.43986e+01 -3.05078e+01  5.86448e+01             
       O -8.65346e+01 -2.20784e+01  4.57702e+01             
       H -8.65973e+01 -2.30672e+01  5.83912e+01             
       H -8.12551e+01 -3.98800e+01  4.80659e+01             
       O -7.42581e+01 -2.02619e+01  7.40712e+01             
       H -7.40360e+01 -1.97089e+01  7.33726e+01             
       H -7.37129e+01 -2.10821e+01  7.39634e+01             
       O -7.52845e+01 -2.98384e+01  5.59610e+01             
       H -7.52133e+01 -3.06962e+01  5.62747e+01             
       H -7.62364e+01 -2.96349e+01  5.61263e+01             
       O -9.60629e+01 -1.72733e+01  6.21288e+01             
       H -9.52300e+01 -1.73099e+01  6.25125e+01             
       H -9.66357e+01 -1.67713e+01  6.26939e+01             
       O -6.75074e+01 -2.28147e+01  5.10305e+01             
       H -6.65970e+01 -2.28961e+01  5.08367e+01             
       H -6.79049e+01 -2.20398e+01  5.05000e+01             
       O -9.22187e+01 -2.32626e+01  2.89213e+01             
       H -9.24928e+01 -2.24152e+01  2.93169e+01             
       H -9.23637e+01 -2.30604e+01  2.79606e+01             
       O -8.11535e+01 -2.24750e+01  3.29246e+01             
       H -6.06069e+01 -1.49504e+01  4.48810e+01             
       H -8.02791e+01 -2.21435e+01  3.26674e+01             
       O -8.08223e+01 -2.03353e+01  6.24570e+01             
       H -8.15636e+01 -2.01363e+01  6.30477e+01             
       H -8.11292e+01 -2.01604e+01  6.15432e+01             
       O -7.84796e+01 -1.94003e+01  7.97745e+01             
       H -7.87824e+01 -1.84879e+01  7.97455e+01             
       H -7.77732e+01 -1.94882e+01  7.90847e+01             
