192                                                         
# CELL(abcABC):   12.41850    12.41850    12.41850    90.00000    90.00000    90.00000  Step:           0  Bead:       0 x_centroid{angstrom}  cell{angstrom}   
       O -7.64986e+01 -1.33998e+01  6.44703e+01             
       H -7.70976e+01 -1.37708e+01  6.38560e+01             
       H -7.57233e+01 -1.32292e+01  6.39004e+01             
       O -7.17588e+01 -1.15296e+01  6.03765e+01             
       H -6.43105e+01 -1.76432e+01  5.50002e+01             
       H -7.26400e+01 -1.11108e+01  6.03035e+01             
       O -7.00023e+01 -2.37892e+01  5.34482e+01             
       H -6.98660e+01 -1.07557e+01  5.41797e+01             
       H -7.02763e+01 -2.45892e+01  5.39398e+01             
       O -5.66766e+01 -2.13900e+01  5.50505e+01             
       H -5.71094e+01 -2.15921e+01  5.59427e+01             
       H -5.57781e+01 -2.16174e+01  5.51854e+01             
       O -5.67881e+01 -2.06161e+01  5.19875e+01             
       H -5.76377e+01 -2.06322e+01  5.15814e+01             
       H -5.69342e+01 -2.02961e+01  5.28730e+01             
       O -5.92748e+01 -1.97251e+01  6.41852e+01             
       H -6.01013e+01 -1.97925e+01  6.36335e+01             
       H -5.95684e+01 -1.91773e+01  6.48711e+01             
       O -7.06788e+01 -2.20361e+01  4.46115e+01             
       H -7.10064e+01 -2.11412e+01  4.49010e+01             
       H -5.92591e+01  1.21682e+00  5.26883e+01             
       O -5.24324e+01 -1.28354e+01  6.84013e+01             
       H -5.27761e+01 -1.22160e+01  6.77483e+01             
       H -5.25118e+01 -2.47728e+01  6.92043e+01             
       O -7.55060e+01 -7.01074e+00  4.07344e+01             
       H -7.54059e+01 -6.80542e+00  4.16439e+01             
       H -7.50610e+01 -7.92397e+00  4.07031e+01             
       O -6.60386e+01 -2.41268e+01  5.34968e+01             
       H -6.66653e+01 -2.36563e+01  5.29444e+01             
       H -6.53558e+01 -2.44585e+01  5.29144e+01             
       O -7.13959e+01 -6.33360e+00  6.00867e+01             
       H -7.21045e+01 -5.80212e+00  6.03960e+01             
       H -7.05575e+01 -6.03620e+00  6.04704e+01             
       O -6.66958e+01 -9.99862e+00  4.89010e+01             
       H -6.69431e+01 -9.70817e+00  4.97735e+01             
       H -5.61259e+01 -1.25093e+01  4.83143e+01             
       O -6.20722e+01 -2.89507e+01  4.55650e+01             
       H -6.12888e+01 -2.86139e+01  4.59942e+01             
       H -6.06315e+01 -2.64471e+01  6.15663e+01             
       O -7.16250e+01 -1.92343e+01  4.50143e+01             
       H -7.09745e+01 -1.87106e+01  4.45263e+01             
       H -7.15256e+01 -1.90473e+01  4.59987e+01             
       O -5.16220e+01 -2.28534e+01  6.12661e+01             
       H -5.25766e+01 -2.26625e+01  6.11525e+01             
       H -5.11574e+01 -2.20817e+01  6.09553e+01             
       O -6.96573e+01 -1.27613e+01  6.20804e+01             
       H -7.05499e+01 -1.30202e+01  6.17329e+01             
       H -6.95274e+01 -1.33193e+01  6.29084e+01             
       O -7.15402e+01 -1.26433e+01  4.54309e+01             
       H -7.13331e+01 -2.45936e+01  4.62375e+01             
       H -7.24363e+01 -1.23108e+01  4.53387e+01             
       O -6.79878e+01 -2.61163e+01  4.21658e+01             
       H -6.73094e+01 -2.54572e+01  4.20516e+01             
       H -6.74670e+01 -2.68896e+01  4.23927e+01             
       O -7.28276e+01 -1.36567e+01  5.35858e+01             
       H -7.20499e+01 -1.36109e+01  5.41852e+01             
       H -7.28100e+01 -1.27078e+01  5.31349e+01             
       O -6.65627e+01  7.50259e+00  4.63450e+01             
       H -4.90696e+01 -2.24488e+01  4.62996e+01             
       H -6.58097e+01  8.02605e+00  4.59705e+01             
       O -6.73783e+01 -1.90788e+01  6.24367e+01             
       H -6.49082e+01 -2.27219e+01  5.87292e+01             
       H -7.93322e+01 -1.91205e+01  6.32989e+01             
       O -6.18745e+01 -2.88232e+01  5.51318e+01             
       H -6.20286e+01 -2.83571e+01  5.59820e+01             
       H -6.22421e+01 -2.82936e+01  5.44054e+01             
       O -6.89805e+01 -1.61597e+01  5.81423e+01             
       H -6.88369e+01 -1.67992e+01  5.88613e+01             
       H -6.98099e+01 -1.57060e+01  5.83607e+01             
       O -6.21734e+01 -4.22785e+01  5.09565e+01             
       H -6.14396e+01 -4.16648e+01  5.12403e+01             
       H -6.24269e+01 -4.29224e+01  6.40445e+01             
       O -6.59053e+01 -6.81821e+00  5.23306e+01             
       H -6.60611e+01 -5.92057e+00  5.26136e+01             
       H -6.49358e+01 -6.91733e+00  5.23389e+01             
       O -6.19037e+01 -1.95909e+01  5.66792e+01             
       H -6.09488e+01 -1.95436e+01  5.68872e+01             
       H -6.20317e+01 -2.05300e+01  5.67070e+01             
       O -6.76650e+01 -1.98479e+01  6.99876e+01             
       H -6.72535e+01 -1.98519e+01  6.90841e+01             
       H -6.74113e+01 -1.89713e+01  7.03737e+01             
       O -8.44683e+01 -1.53499e+01  4.63787e+01             
       H -8.44101e+01 -1.44231e+01  4.60890e+01             
       H -8.43832e+01 -1.53428e+01  4.73327e+01             
       O -6.10896e+01 -4.83466e+00  6.08575e+01             
       H -6.06421e+01 -4.06239e+00  6.12883e+01             
       H -6.14189e+01 -5.30620e+00  6.16049e+01             
       O -6.24472e+01 -1.30511e+01  4.95497e+01             
       H -6.26896e+01 -1.21568e+01  4.92059e+01             
       H -6.28677e+01 -1.36557e+01  3.65451e+01             
       O -5.82860e+01 -1.37714e+01  3.05420e+01             
       H -5.73158e+01 -1.38612e+01  3.03665e+01             
       H -7.06993e+01 -1.32058e+01  3.13444e+01             
       O -5.24213e+01 -1.56284e+01  3.23209e+01             
       H -5.24271e+01 -1.47168e+01  3.25461e+01             
       H -5.15800e+01 -1.59560e+01  3.25959e+01             
       O -6.75443e+01 -2.25893e+01  3.91664e+01             
       H -6.81950e+01 -2.32499e+01  3.91574e+01             
       H -6.81220e+01 -2.17892e+01  5.17508e+01             
       O -5.41589e+01 -1.45841e+01  3.50208e+01             
       H -6.46816e+01 -9.23932e+00  4.33517e+01             
       H -5.48387e+01 -1.50286e+01  3.45121e+01             
       O -6.41481e+01 -2.72700e+01  5.41888e+01             
       H -6.39613e+01 -2.65978e+01  5.35487e+01             
       H -6.45752e+01 -2.68754e+01  5.49398e+01             
       O -5.37006e+01 -1.69278e+01  4.14140e+01             
       H -5.30648e+01 -1.61619e+01  4.14402e+01             
       H -5.41697e+01 -1.68556e+01  4.22298e+01             
       O -5.64948e+01 -2.70156e+01  5.18633e+01             
       H -5.63646e+01 -2.64820e+01  5.26491e+01             
       H -5.67630e+01 -2.78893e+01  5.22279e+01             
       O -6.40061e+01 -6.67119e+00  5.84372e+01             
       H -6.45684e+01 -5.97104e+00  5.80786e+01             
       H -6.33297e+01 -6.83604e+00  5.77368e+01             
       O -5.33029e+01  3.79373e+00  7.15324e+01             
       H -5.26376e+01  4.47517e+00  7.14082e+01             
       H -5.40374e+01  4.07373e+00  7.08901e+01             
       O -5.98918e+01 -2.71173e+01  6.16343e+01             
       H -7.01918e+01 -2.22597e+01  4.54410e+01             
       H -5.98066e+01 -2.72956e+01  6.26221e+01             
       O -6.42591e+01 -1.83257e+01  5.56663e+01             
       H -5.44255e+01 -1.36123e+01  3.50470e+01             
       H -6.33086e+01 -1.84028e+01  5.58413e+01             
       O -5.54483e+01 -1.21849e+01  4.77138e+01             
       H -6.63082e+01 -5.05158e+00  4.72458e+01             
       H -5.48830e+01 -1.15599e+01  4.81644e+01             
       O -6.16579e+01 -2.56045e+01  5.63270e+01             
       H -7.38534e+01 -2.56780e+01  6.77913e+01             
       H -5.88623e+01 -1.08629e+01  6.08811e+01             
       O -8.88475e+01 -1.36906e+01  5.90403e+01             
       H -8.96379e+01 -1.40769e+01  5.94864e+01             
       H -8.81744e+01 -1.43638e+01  5.91623e+01             
       O -6.15980e+01 -3.48832e+01  4.72749e+01             
       H -6.15855e+01 -3.39929e+01  4.77120e+01             
       H -6.82019e+01 -1.96164e+01  6.26085e+01             
       O -6.37622e+01 -9.37786e+00  4.36725e+01             
       H -6.39124e+01 -1.02297e+01  4.41604e+01             
       H -8.25161e+01 -2.12501e+01  2.32846e+01             
       O -7.33660e+01 -2.26752e+01  4.45411e+01             
       H -7.24265e+01 -2.28521e+01  4.44229e+01             
       H -7.38830e+01 -2.33004e+01  4.40703e+01             
       O -6.46410e+01 -2.20805e+01  3.93445e+01             
       H -6.56319e+01 -2.20657e+01  3.94524e+01             
       H -6.43880e+01 -2.24444e+01  3.85109e+01             
       O -4.73113e+01 -2.80360e+01  5.16701e+01             
       H -4.75400e+01 -1.50767e+01  5.25148e+01             
       H -4.68265e+01 -2.88340e+01  5.19804e+01             
       O -5.71369e+01 -5.85832e+00  5.49456e+01             
       H -4.39563e+01 -5.42384e+00  5.52063e+01             
       H -5.69560e+01 -6.78492e+00  5.50445e+01             
       O -6.01767e+01  1.04349e+00  5.23369e+01             
       H -6.19395e+01 -2.99089e+01  4.54300e+01             
       H -6.67673e+01  3.16443e+00  4.83154e+01             
       O -6.85604e+01 -1.71199e+01  4.83676e+01             
       H -6.80520e+01 -1.76510e+01  4.89689e+01             
       H -6.81904e+01 -1.61982e+01  4.83303e+01             
       O -6.62747e+01 -7.65757e+00  4.27765e+01             
       H -6.64251e+01 -1.98542e+01  4.18257e+01             
       H -6.54876e+01 -7.07293e+00  4.29568e+01             
       O -7.22866e+01 -1.79817e+01  5.36268e+01             
       H -7.14284e+01 -1.78450e+01  5.39714e+01             
       H -7.29064e+01 -1.75268e+01  5.41879e+01             
       O -6.23099e+01 -2.20751e+01  5.34942e+01             
       H -6.31066e+01 -2.23643e+01  5.30542e+01             
       H -6.26179e+01 -2.19425e+01  5.43702e+01             
       O -7.70281e+01 -2.34939e+01  4.58196e+01             
       H -7.64282e+01 -2.40267e+01  5.87105e+01             
       H -7.49545e+01 -3.82784e+01  4.41224e+01             
       O -6.12749e+01 -2.06483e+01  6.23193e+01             
       H -6.10535e+01 -2.14974e+01  6.27042e+01             
       H -6.21741e+01 -2.04712e+01  6.26167e+01             
       O -6.39548e+01 -2.01016e+01  4.95238e+01             
       H -6.39672e+01 -1.94877e+01  4.88496e+01             
       H -6.48945e+01 -2.02708e+01  4.95617e+01             
       O -7.99664e+01 -1.61852e+01  5.59914e+01             
       H -7.91506e+01 -1.60125e+01  5.65426e+01             
       H -8.06849e+01 -1.62518e+01  5.66823e+01             
       O -5.63851e+01 -2.18098e+01  4.68835e+01             
       H -5.59665e+01 -2.13587e+01  4.61396e+01             
       H -5.59768e+01 -2.27492e+01  4.69429e+01             
       O -7.67381e+01 -1.68245e+01  2.37861e+01             
       H -7.65206e+01 -1.69927e+01  2.47066e+01             
       H -7.59551e+01 -1.69761e+01  2.32773e+01             
       O -7.06388e+01 -2.12610e+01  2.40966e+01             
       H -4.84009e+01 -1.07328e+01  4.03432e+01             
       H -7.11433e+01 -2.04817e+01  2.38543e+01             
       O -6.97497e+01 -1.72458e+01  5.14685e+01             
       H -7.01492e+01 -1.80869e+01  5.16764e+01             
       H -6.95354e+01 -1.72131e+01  5.05331e+01             
       O -6.61224e+01 -1.47645e+01  7.55551e+01             
       H -6.62468e+01 -1.46876e+01  7.46196e+01             
       H -6.70109e+01 -1.46080e+01  7.59422e+01             
192                                                         
# CELL(abcABC):   12.41850    12.41850    12.41850    90.00000    90.00000    90.00000  Step:      200000  Bead:       0 x_centroid{angstrom}  cell{angstrom}   
       O -8.55645e+01 -1.63606e+01  6.80780e+01             
       H -8.46998e+01 -1.61732e+01  6.85006e+01             
       H -8.52991e+01 -1.62594e+01  6.71288e+01             
       O -8.92432e+01 -1.19002e+01  6.26458e+01             
       H -7.87086e+01 -2.09152e+01  6.27018e+01             
       H -8.91988e+01 -1.19471e+01  6.36614e+01             
       O -8.46175e+01 -2.82653e+01  6.56479e+01             
       H -8.43634e+01 -1.65118e+01  6.49810e+01             
       H -8.40529e+01 -2.74841e+01  6.54542e+01             
       O -6.82236e+01 -2.60892e+01  6.19232e+01             
       H -6.79889e+01 -2.68288e+01  6.24760e+01             
       H -6.77240e+01 -2.63514e+01  6.10816e+01             
       O -6.71006e+01 -2.67514e+01  5.96389e+01             
       H -6.70362e+01 -2.59238e+01  5.91420e+01             
       H -6.61414e+01 -2.70016e+01  5.96673e+01             
       O -7.32663e+01 -2.20608e+01  7.05418e+01             
       H -7.28025e+01 -2.26193e+01  6.98603e+01             
       H -7.31788e+01 -2.25089e+01  7.13704e+01             
       O -8.65863e+01 -2.28795e+01  5.01464e+01             
       H -8.63587e+01 -2.22233e+01  5.07885e+01             
       H -7.09726e+01 -3.42398e+00  6.02954e+01             
       O -6.46343e+01 -1.60933e+01  7.18680e+01             
       H -6.42100e+01 -1.68939e+01  7.23094e+01             
       H -6.51672e+01 -2.89421e+01  7.11530e+01             
       O -8.88195e+01 -1.01187e+01  4.76865e+01             
       H -8.94415e+01 -9.59037e+00  4.81369e+01             
       H -8.79357e+01 -9.73104e+00  4.77181e+01             
       O -7.98827e+01 -3.10784e+01  5.94157e+01             
       H -8.06268e+01 -3.16372e+01  5.92380e+01             
       H -7.91713e+01 -3.14729e+01  5.89150e+01             
       O -8.81119e+01 -9.15255e+00  6.91027e+01             
       H -8.78585e+01 -8.21926e+00  6.88313e+01             
       H -8.72933e+01 -9.45090e+00  6.96867e+01             
       O -8.09120e+01 -1.28814e+01  5.43591e+01             
       H -8.02223e+01 -1.34093e+01  5.48523e+01             
       H -6.68292e+01 -1.55996e+01  5.31797e+01             
       O -7.60341e+01 -2.81510e+01  5.64809e+01             
       H -7.51229e+01 -2.84157e+01  5.62046e+01             
       H -7.24328e+01 -3.30704e+01  7.04773e+01             
       O -8.75620e+01 -2.18841e+01  5.38597e+01             
       H -8.77212e+01 -2.18432e+01  5.48212e+01             
       H -8.77047e+01 -2.10149e+01  5.35519e+01             
       O -6.59199e+01 -2.18935e+01  7.00597e+01             
       H -6.61878e+01 -2.27424e+01  7.04923e+01             
       H -6.50254e+01 -2.21445e+01  6.97873e+01             
       O -8.21065e+01 -1.66471e+01  7.01949e+01             
       H -8.16843e+01 -1.65691e+01  7.10512e+01             
       H -8.18068e+01 -1.75085e+01  6.97553e+01             
       O -8.30657e+01 -1.47121e+01  5.59407e+01             
       H -8.23126e+01 -2.69259e+01  5.53756e+01             
       H -8.25986e+01 -1.50392e+01  5.67335e+01             
       O -8.37810e+01 -3.23735e+01  4.88713e+01             
       H -8.29730e+01 -3.26360e+01  4.83779e+01             
       H -8.41315e+01 -3.32582e+01  4.89258e+01             
       O -8.52491e+01 -1.83421e+01  5.96737e+01             
       H -8.46581e+01 -1.88357e+01  6.03122e+01             
       H -8.48542e+01 -1.74345e+01  5.98743e+01             
       O -7.87209e+01  4.02745e+00  5.23064e+01             
       H -6.10659e+01 -2.71491e+01  5.06492e+01             
       H -7.88199e+01  3.08055e+00  5.25558e+01             
       O -7.98554e+01 -2.42402e+01  7.10121e+01             
       H -7.69496e+01 -2.79693e+01  6.57801e+01             
       H -9.29190e+01 -2.41043e+01  7.02991e+01             
       O -7.40515e+01 -3.26446e+01  6.33510e+01             
       H -7.34632e+01 -3.18910e+01  6.32769e+01             
       H -7.47745e+01 -3.24095e+01  6.27888e+01             
       O -8.48114e+01 -2.22886e+01  6.57344e+01             
       H -8.57615e+01 -2.23417e+01  6.58755e+01             
       H -8.45670e+01 -2.13530e+01  6.58331e+01             
       O -7.76781e+01 -4.27218e+01  5.55543e+01             
       H -7.73210e+01 -4.18266e+01  5.55508e+01             
       H -7.73096e+01 -4.31468e+01  6.87391e+01             
       O -8.07390e+01 -1.00543e+01  6.06451e+01             
       H -8.12247e+01 -1.02980e+01  6.14536e+01             
       H -7.99482e+01 -9.54169e+00  6.09268e+01             
       O -7.33234e+01 -2.53986e+01  6.36241e+01             
       H -7.25062e+01 -2.49067e+01  6.37709e+01             
       H -7.36858e+01 -2.55598e+01  6.44982e+01             
       O -7.94486e+01 -2.36561e+01  7.55588e+01             
       H -7.98771e+01 -2.44533e+01  7.51530e+01             
       H -7.85318e+01 -2.36919e+01  7.52495e+01             
       O -9.66347e+01 -1.95814e+01  5.34511e+01             
       H -9.68989e+01 -1.90235e+01  5.26493e+01             
       H -9.72315e+01 -1.93328e+01  5.42245e+01             
       O -7.36136e+01 -6.68557e+00  6.80243e+01             
       H -7.29914e+01 -7.05100e+00  6.86931e+01             
       H -7.33910e+01 -5.75570e+00  6.80896e+01             
       O -7.43223e+01 -1.42042e+01  5.84981e+01             
       H -7.38318e+01 -1.41209e+01  5.76563e+01             
       H -7.38341e+01 -1.47391e+01  4.67673e+01             
       O -6.91682e+01 -1.60808e+01  3.89333e+01             
       H -6.95779e+01 -1.52682e+01  3.93161e+01             
       H -8.15425e+01 -1.67751e+01  3.96323e+01             
       O -6.38371e+01 -1.92248e+01  4.10541e+01             
       H -6.44779e+01 -1.87415e+01  4.16090e+01             
       H -6.36197e+01 -1.85229e+01  4.04523e+01             
       O -8.17376e+01 -2.86151e+01  4.85021e+01             
       H -8.11786e+01 -2.79090e+01  4.82760e+01             
       H -8.17057e+01 -2.86407e+01  6.19218e+01             
       O -6.87705e+01 -1.80532e+01  4.10136e+01             
       H -7.96056e+01 -1.82906e+01  4.85978e+01             
       H -6.92978e+01 -1.84103e+01  4.17707e+01             
       O -7.72493e+01 -3.14736e+01  5.78612e+01             
       H -7.75910e+01 -3.24137e+01  5.77765e+01             
       H -7.67028e+01 -3.15455e+01  5.86484e+01             
       O -6.43271e+01 -1.66944e+01  5.01643e+01             
       H -6.51991e+01 -1.71551e+01  5.01088e+01             
       H -6.43784e+01 -1.57983e+01  4.98028e+01             
       O -7.05101e+01 -2.49967e+01  6.00484e+01             
       H -7.09267e+01 -2.57712e+01  5.97200e+01             
       H -6.97822e+01 -2.51880e+01  6.06863e+01             
       O -7.95250e+01 -1.09082e+01  6.57916e+01             
       H -7.96424e+01 -1.11344e+01  6.47683e+01             
       H -7.86304e+01 -1.11533e+01  6.60312e+01             
       O -6.36151e+01 -1.85987e+00  7.39701e+01             
       H -6.40184e+01 -1.70017e+00  7.30704e+01             
       H -6.37311e+01 -1.05435e+00  7.44595e+01             
       O -7.19551e+01 -3.23320e+01  7.01116e+01             
       H -8.61851e+01 -2.37081e+01  5.05144e+01             
       H -7.21014e+01 -3.14751e+01  7.06413e+01             
       O -7.86478e+01 -2.09091e+01  6.17513e+01             
       H -6.80503e+01 -1.77680e+01  4.15035e+01             
       H -7.90470e+01 -2.00479e+01  6.14930e+01             
       O -6.63062e+01 -1.52422e+01  5.39118e+01             
       H -7.78083e+01 -8.04581e+00  5.25820e+01             
       H -6.67294e+01 -1.54008e+01  5.47811e+01             
       O -7.25259e+01 -3.03156e+01  6.33700e+01             
       H -8.56317e+01 -2.96460e+01  7.55238e+01             
       H -7.61909e+01 -1.11700e+01  6.24648e+01             
       O -9.95629e+01 -1.36535e+01  6.60619e+01             
       H -9.91819e+01 -1.36720e+01  6.69544e+01             
       H -9.98924e+01 -1.45623e+01  6.59201e+01             
       O -7.36874e+01 -4.03748e+01  5.01254e+01             
       H -7.44710e+01 -4.00312e+01  4.96449e+01             
       H -8.02831e+01 -2.38486e+01  7.17892e+01             
       O -7.92071e+01 -1.82500e+01  4.95379e+01             
       H -7.99841e+01 -1.84974e+01  5.01492e+01             
       H -9.70748e+01 -2.63373e+01  3.11238e+01             
       O -8.26855e+01 -2.62509e+01  5.26161e+01             
       H -8.29265e+01 -2.53476e+01  5.22078e+01             
       H -8.19758e+01 -2.60536e+01  5.32765e+01             
       O -8.01046e+01 -2.72027e+01  4.39376e+01             
       H -8.04382e+01 -2.77481e+01  4.46604e+01             
       H -7.92801e+01 -2.67633e+01  4.42765e+01             
       O -6.31986e+01 -3.12113e+01  6.06627e+01             
       H -6.35788e+01 -1.83607e+01  6.14453e+01             
       H -6.23048e+01 -3.08633e+01  6.05981e+01             
       O -7.10780e+01 -1.15175e+01  6.40686e+01             
       H -5.91610e+01 -1.09542e+01  6.47094e+01             
       H -7.04986e+01 -1.08119e+01  6.36467e+01             
       O -7.19604e+01 -3.42632e+00  6.01133e+01             
       H -7.59174e+01 -2.78449e+01  5.74042e+01             
       H -8.04082e+01  3.53653e-01  5.40129e+01             
       O -8.17631e+01 -2.39782e+01  5.65424e+01             
       H -8.15617e+01 -2.45888e+01  5.57712e+01             
       H -8.13367e+01 -2.30931e+01  5.63376e+01             
       O -7.66679e+01 -1.27806e+01  4.67561e+01             
       H -7.57381e+01 -2.54151e+01  4.65390e+01             
       H -7.67375e+01 -1.19516e+01  4.72499e+01             
       O -8.43073e+01 -2.27611e+01  6.07842e+01             
       H -8.38374e+01 -2.35994e+01  6.05727e+01             
       H -8.50687e+01 -2.28541e+01  6.13626e+01             
       O -7.78239e+01 -2.54345e+01  5.65735e+01             
       H -7.70969e+01 -2.60318e+01  5.62615e+01             
       H -7.74448e+01 -2.52867e+01  5.75593e+01             
       O -8.84809e+01 -2.83155e+01  5.31252e+01             
       H -8.85683e+01 -2.86081e+01  6.46342e+01             
       H -8.43801e+01 -4.28470e+01  5.02169e+01             
       O -7.20064e+01 -2.32134e+01  6.86374e+01             
       H -7.11617e+01 -2.36637e+01  6.88168e+01             
       H -7.19445e+01 -2.26834e+01  6.77985e+01             
       O -7.65307e+01 -2.41395e+01  5.30771e+01             
       H -7.58630e+01 -2.48946e+01  5.33418e+01             
       H -7.61231e+01 -2.32365e+01  5.32327e+01             
       O -9.46662e+01 -2.19521e+01  6.29084e+01             
       H -9.53686e+01 -2.16868e+01  6.23275e+01             
       H -9.43310e+01 -2.11148e+01  6.32273e+01             
       O -6.86434e+01 -1.96632e+01  5.12382e+01             
       H -6.78095e+01 -2.00473e+01  5.15376e+01             
       H -6.90498e+01 -1.92593e+01  5.19927e+01             
       O -9.27805e+01 -2.17136e+01  3.10769e+01             
       H -9.26538e+01 -2.18629e+01  3.01352e+01             
       H -9.18636e+01 -2.18389e+01  3.13902e+01             
       O -8.55169e+01 -2.58671e+01  3.12115e+01             
       H -5.99725e+01 -1.56719e+01  4.85647e+01             
       H -8.51201e+01 -2.49793e+01  3.11779e+01             
       O -8.19705e+01 -2.03755e+01  5.90570e+01             
       H -8.27692e+01 -2.04665e+01  5.85428e+01             
       H -8.16934e+01 -2.11993e+01  5.93742e+01             
       O -8.18186e+01 -1.89979e+01  8.09256e+01             
       H -8.12325e+01 -1.97349e+01  8.12217e+01             
       H -8.26244e+01 -1.94322e+01  8.09430e+01             
