192                                                         
# CELL(abcABC):   12.41850    12.41850    12.41850    90.00000    90.00000    90.00000  Step:           0  Bead:       0 x_centroid{angstrom}  cell{angstrom}   
       O -7.67906e+01 -1.31561e+01  6.42361e+01             
       H -7.70998e+01 -1.36462e+01  6.34417e+01             
       H -7.61355e+01 -1.25161e+01  6.39202e+01             
       O -7.24627e+01 -1.19955e+01  6.10930e+01             
       H -6.32826e+01 -1.73121e+01  5.55164e+01             
       H -7.33335e+01 -1.19605e+01  6.13906e+01             
       O -6.99407e+01 -2.37694e+01  5.35858e+01             
       H -6.94955e+01 -1.06451e+01  5.40700e+01             
       H -7.00526e+01 -2.44715e+01  5.41883e+01             
       O -5.60479e+01 -2.18863e+01  5.51498e+01             
       H -5.66147e+01 -2.17814e+01  5.59293e+01             
       H -5.53187e+01 -2.24027e+01  5.54935e+01             
       O -5.66676e+01 -2.01107e+01  5.21232e+01             
       H -5.76344e+01 -2.01149e+01  5.20614e+01             
       H -5.65365e+01 -1.95045e+01  5.28466e+01             
       O -5.94180e+01 -1.97109e+01  6.40481e+01             
       H -6.00612e+01 -1.99900e+01  6.33444e+01             
       H -5.99569e+01 -1.94154e+01  6.47625e+01             
       O -7.09456e+01 -2.09599e+01  4.42489e+01             
       H -7.09747e+01 -1.99793e+01  4.43030e+01             
       H -5.91994e+01  1.45642e+00  5.28053e+01             
       O -5.22276e+01 -1.28568e+01  6.83701e+01             
       H -5.29872e+01 -1.28486e+01  6.77576e+01             
       H -5.23550e+01 -2.45783e+01  6.90049e+01             
       O -7.46248e+01 -7.06899e+00  4.05909e+01             
       H -7.46679e+01 -6.83985e+00  4.15763e+01             
       H -7.48446e+01 -7.97784e+00  4.05414e+01             
       O -6.61630e+01 -2.47185e+01  5.38125e+01             
       H -6.65116e+01 -2.39387e+01  5.33346e+01             
       H -6.53969e+01 -2.48889e+01  5.32626e+01             
       O -7.13986e+01 -5.84867e+00  6.00117e+01             
       H -7.21906e+01 -5.63037e+00  6.05247e+01             
       H -7.04579e+01 -5.69520e+00  6.04218e+01             
       O -6.68361e+01 -1.00250e+01  4.89800e+01             
       H -6.71991e+01 -1.02044e+01  4.98601e+01             
       H -5.67941e+01 -1.18277e+01  4.76849e+01             
       O -6.18197e+01 -2.87929e+01  4.56603e+01             
       H -6.09322e+01 -2.84219e+01  4.57978e+01             
       H -5.99760e+01 -2.63148e+01  6.14510e+01             
       O -7.13760e+01 -1.83199e+01  4.46709e+01             
       H -7.06976e+01 -1.76721e+01  4.44699e+01             
       H -7.13434e+01 -1.83928e+01  4.56495e+01             
       O -5.17235e+01 -2.31404e+01  6.07475e+01             
       H -5.26763e+01 -2.28266e+01  6.07499e+01             
       H -5.12461e+01 -2.23129e+01  6.06300e+01             
       O -6.90111e+01 -1.24564e+01  6.26184e+01             
       H -6.98751e+01 -1.24002e+01  6.30779e+01             
       H -6.85417e+01 -1.32088e+01  6.29980e+01             
       O -7.20346e+01 -1.26428e+01  4.56818e+01             
       H -7.22065e+01 -2.45746e+01  4.65758e+01             
       H -7.27576e+01 -1.24981e+01  4.51006e+01             
       O -6.78975e+01 -2.68386e+01  4.16560e+01             
       H -6.73413e+01 -2.61061e+01  4.15836e+01             
       H -6.75590e+01 -2.76134e+01  4.20481e+01             
       O -7.28464e+01 -1.34815e+01  5.41193e+01             
       H -7.19965e+01 -1.35516e+01  5.45846e+01             
       H -7.26682e+01 -1.26617e+01  5.35711e+01             
       O -6.61889e+01  7.61704e+00  4.63704e+01             
       H -4.92492e+01 -2.16517e+01  4.62029e+01             
       H -6.58055e+01  8.28893e+00  4.57853e+01             
       O -6.74690e+01 -1.95798e+01  6.21444e+01             
       H -6.45724e+01 -2.25912e+01  5.82456e+01             
       H -7.89833e+01 -1.93152e+01  6.23201e+01             
       O -6.12419e+01 -2.90845e+01  5.51163e+01             
       H -6.09251e+01 -2.87622e+01  5.59783e+01             
       H -6.16138e+01 -2.83289e+01  5.46684e+01             
       O -6.88372e+01 -1.64448e+01  5.81331e+01             
       H -6.84356e+01 -1.70943e+01  5.87087e+01             
       H -6.97144e+01 -1.61994e+01  5.84385e+01             
       O -6.26504e+01 -4.21552e+01  5.12212e+01             
       H -6.21895e+01 -4.15730e+01  5.17715e+01             
       H -6.27755e+01 -4.29716e+01  6.42265e+01             
       O -6.57088e+01 -7.53307e+00  5.23306e+01             
       H -6.53608e+01 -6.64073e+00  5.24032e+01             
       H -6.50398e+01 -8.04264e+00  5.18379e+01             
       O -6.14765e+01 -1.95977e+01  5.58534e+01             
       H -6.07094e+01 -1.93318e+01  5.63552e+01             
       H -6.15975e+01 -2.05448e+01  5.58778e+01             
       O -6.71461e+01 -1.95893e+01  7.03518e+01             
       H -6.70307e+01 -1.96769e+01  6.93924e+01             
       H -6.67453e+01 -1.87119e+01  7.06748e+01             
       O -8.36025e+01 -1.52500e+01  4.63396e+01             
       H -8.34154e+01 -1.43555e+01  4.60056e+01             
       H -8.36985e+01 -1.51172e+01  4.73086e+01             
       O -6.16432e+01 -4.49290e+00  6.10244e+01             
       H -6.11482e+01 -3.64100e+00  6.11149e+01             
       H -6.20131e+01 -4.72142e+00  6.19094e+01             
       O -6.25341e+01 -1.24033e+01  5.00581e+01             
       H -6.32654e+01 -1.24256e+01  4.94278e+01             
       H -6.22437e+01 -1.33289e+01  3.76892e+01             
       O -5.79558e+01 -1.33596e+01  3.05898e+01             
       H -5.71272e+01 -1.38667e+01  3.03902e+01             
       H -7.03197e+01 -1.31440e+01  3.15571e+01             
       O -5.23463e+01 -1.54703e+01  3.22570e+01             
       H -5.21521e+01 -1.44986e+01  3.20932e+01             
       H -5.15474e+01 -1.59340e+01  3.20232e+01             
       O -6.72212e+01 -2.26740e+01  3.95176e+01             
       H -6.79651e+01 -2.31855e+01  3.96757e+01             
       H -6.75060e+01 -2.17653e+01  5.22299e+01             
       O -5.44133e+01 -1.41233e+01  3.47319e+01             
       H -6.41777e+01 -9.05727e+00  4.28070e+01             
       H -5.48017e+01 -1.47871e+01  3.41768e+01             
       O -6.32567e+01 -2.73686e+01  5.36029e+01             
       H -6.34969e+01 -2.68031e+01  5.28742e+01             
       H -6.35907e+01 -2.68624e+01  5.43801e+01             
       O -5.29907e+01 -1.72278e+01  4.01233e+01             
       H -5.23292e+01 -1.66092e+01  4.03924e+01             
       H -5.38318e+01 -1.66842e+01  4.02233e+01             
       O -5.55368e+01 -2.72868e+01  5.13124e+01             
       H -5.52871e+01 -2.73271e+01  5.22199e+01             
       H -5.63761e+01 -2.77696e+01  5.12313e+01             
       O -6.31154e+01 -6.60176e+00  5.91259e+01             
       H -6.26479e+01 -6.51116e+00  5.82781e+01             
       H -6.26267e+01 -7.36006e+00  5.94642e+01             
       O -5.27383e+01  3.90244e+00  7.17366e+01             
       H -5.21722e+01  4.62267e+00  7.15056e+01             
       H -5.35042e+01  4.24064e+00  7.12114e+01             
       O -6.01076e+01 -2.72965e+01  6.16460e+01             
       H -7.06091e+01 -2.12604e+01  4.50359e+01             
       H -6.01120e+01 -2.73011e+01  6.25883e+01             
       O -6.38173e+01 -1.80269e+01  5.58225e+01             
       H -5.49291e+01 -1.33244e+01  3.46028e+01             
       H -6.30798e+01 -1.85999e+01  5.60563e+01             
       O -5.59269e+01 -1.17122e+01  4.72420e+01             
       H -6.55135e+01 -4.82382e+00  4.71088e+01             
       H -5.53815e+01 -1.12205e+01  4.78797e+01             
       O -6.17797e+01 -2.46863e+01  5.57920e+01             
       H -7.35992e+01 -2.51385e+01  6.75445e+01             
       H -5.96886e+01 -1.11114e+01  6.11745e+01             
       O -8.89218e+01 -1.36318e+01  6.00413e+01             
       H -8.98150e+01 -1.40012e+01  6.00419e+01             
       H -8.85219e+01 -1.43627e+01  5.95413e+01             
       O -6.19377e+01 -3.36476e+01  4.70881e+01             
       H -6.14481e+01 -3.39877e+01  4.78392e+01             
       H -6.78895e+01 -1.96957e+01  6.30407e+01             
       O -6.36990e+01 -9.86073e+00  4.26510e+01             
       H -6.33319e+01 -1.01367e+01  4.35097e+01             
       H -8.27942e+01 -2.16149e+01  2.33504e+01             
       O -7.35959e+01 -2.23404e+01  4.47766e+01             
       H -7.27534e+01 -2.20607e+01  4.44417e+01             
       H -7.37583e+01 -2.32281e+01  4.43880e+01             
       O -6.42347e+01 -2.25376e+01  3.87139e+01             
       H -6.50472e+01 -2.27223e+01  3.92114e+01             
       H -6.42548e+01 -2.29534e+01  3.78110e+01             
       O -4.79737e+01 -2.75435e+01  5.18783e+01             
       H -4.79767e+01 -1.44033e+01  5.25974e+01             
       H -4.72245e+01 -2.81343e+01  5.20302e+01             
       O -5.61181e+01 -6.54273e+00  5.49326e+01             
       H -4.29468e+01 -5.98634e+00  5.51290e+01             
       H -5.59761e+01 -7.37038e+00  5.53515e+01             
       O -5.99386e+01  1.00728e+00  5.23191e+01             
       H -6.20103e+01 -2.91148e+01  4.65600e+01             
       H -6.70379e+01  3.27639e+00  4.87234e+01             
       O -6.88259e+01 -1.75282e+01  4.85693e+01             
       H -6.83496e+01 -1.81837e+01  4.91111e+01             
       H -6.85271e+01 -1.66599e+01  4.88033e+01             
       O -6.58050e+01 -7.41880e+00  4.26705e+01             
       H -6.59746e+01 -2.00173e+01  4.17245e+01             
       H -6.51284e+01 -6.67109e+00  4.27632e+01             
       O -7.07851e+01 -1.78159e+01  5.37837e+01             
       H -6.99328e+01 -1.80912e+01  5.42307e+01             
       H -7.14998e+01 -1.78866e+01  5.43927e+01             
       O -6.22081e+01 -2.22776e+01  5.27259e+01             
       H -6.28926e+01 -2.24942e+01  5.20442e+01             
       H -6.26048e+01 -2.24747e+01  5.36050e+01             
       O -7.66647e+01 -2.34438e+01  4.54997e+01             
       H -7.64053e+01 -2.39003e+01  5.87600e+01             
       H -7.50300e+01 -3.75456e+01  4.33362e+01             
       O -6.12621e+01 -2.08583e+01  6.23515e+01             
       H -6.13776e+01 -2.15293e+01  6.30156e+01             
       H -6.20953e+01 -2.03446e+01  6.24620e+01             
       O -6.38283e+01 -1.96428e+01  4.97092e+01             
       H -6.39853e+01 -1.87164e+01  4.94753e+01             
       H -6.44226e+01 -1.99721e+01  4.90793e+01             
       O -7.96583e+01 -1.66516e+01  5.58339e+01             
       H -7.87865e+01 -1.63214e+01  5.61726e+01             
       H -8.03638e+01 -1.63636e+01  5.64886e+01             
       O -5.66389e+01 -2.15928e+01  4.63840e+01             
       H -5.60457e+01 -2.08999e+01  4.60231e+01             
       H -5.61998e+01 -2.24130e+01  4.64932e+01             
       O -7.70341e+01 -1.72871e+01  2.35175e+01             
       H -7.71878e+01 -1.64408e+01  2.38935e+01             
       H -7.61537e+01 -1.73467e+01  2.30905e+01             
       O -7.13214e+01 -2.17510e+01  2.34654e+01             
       H -4.83858e+01 -1.08601e+01  4.00079e+01             
       H -7.18121e+01 -2.09603e+01  2.32298e+01             
       O -7.04150e+01 -1.65112e+01  5.12816e+01             
       H -7.04791e+01 -1.71111e+01  5.20241e+01             
       H -7.07447e+01 -1.69674e+01  5.04918e+01             
       O -6.53514e+01 -1.52805e+01  7.51134e+01             
       H -6.63269e+01 -1.51893e+01  7.51278e+01             
       H -6.51499e+01 -1.58973e+01  7.58159e+01             
192                                                         
# CELL(abcABC):   12.41850    12.41850    12.41850    90.00000    90.00000    90.00000  Step:      200000  Bead:       0 x_centroid{angstrom}  cell{angstrom}   
       O -8.78810e+01 -1.37640e+01  7.20494e+01             
       H -8.73127e+01 -1.30077e+01  7.18436e+01             
       H -8.75345e+01 -1.45645e+01  7.15700e+01             
       O -8.61845e+01 -1.11320e+01  7.46956e+01             
       H -8.06385e+01 -1.88276e+01  6.22102e+01             
       H -8.67907e+01 -1.14817e+01  7.39989e+01             
       O -8.32249e+01 -2.53486e+01  5.69713e+01             
       H -8.34972e+01 -1.19483e+01  5.70198e+01             
       H -8.33178e+01 -2.56093e+01  5.79427e+01             
       O -7.13152e+01 -2.93697e+01  5.80229e+01             
       H -7.04730e+01 -2.97007e+01  5.77139e+01             
       H -7.15216e+01 -2.99462e+01  5.87512e+01             
       O -6.98149e+01 -2.01800e+01  5.73578e+01             
       H -7.00355e+01 -1.96017e+01  5.65425e+01             
       H -6.88192e+01 -2.01441e+01  5.73967e+01             
       O -7.29659e+01 -2.59836e+01  6.79072e+01             
       H -7.24825e+01 -2.61243e+01  6.87476e+01             
       H -7.25290e+01 -2.53362e+01  6.73707e+01             
       O -8.68105e+01 -2.97247e+01  5.02691e+01             
       H -8.60007e+01 -2.93461e+01  4.98440e+01             
       H -7.36857e+01  4.20082e+00  6.31429e+01             
       O -6.69923e+01 -1.55753e+01  7.73599e+01             
       H -6.62878e+01 -1.56914e+01  7.66810e+01             
       H -6.72926e+01 -2.70791e+01  7.72035e+01             
       O -8.07327e+01 -1.08561e+01  4.60247e+01             
       H -7.99788e+01 -1.04344e+01  4.64173e+01             
       H -8.05153e+01 -1.17806e+01  4.63295e+01             
       O -8.20663e+01 -2.81286e+01  6.13311e+01             
       H -8.15962e+01 -2.84509e+01  6.05592e+01             
       H -8.17116e+01 -2.73106e+01  6.16543e+01             
       O -8.35440e+01 -8.82916e+00  6.21803e+01             
       H -8.32480e+01 -9.20998e+00  6.30247e+01             
       H -8.32872e+01 -7.89953e+00  6.20774e+01             
       O -7.96361e+01 -1.27669e+01  5.17520e+01             
       H -7.86755e+01 -1.25511e+01  5.16075e+01             
       H -6.66243e+01 -1.91599e+01  5.81801e+01             
       O -7.81678e+01 -3.14859e+01  5.21062e+01             
       H -7.78020e+01 -3.05983e+01  5.18955e+01             
       H -6.98281e+01 -2.62389e+01  6.82242e+01             
       O -8.34521e+01 -2.38886e+01  5.07951e+01             
       H -8.41408e+01 -2.38551e+01  5.01237e+01             
       H -8.38287e+01 -2.40742e+01  5.16421e+01             
       O -6.43936e+01 -2.34427e+01  7.00318e+01             
       H -6.45605e+01 -2.41935e+01  7.06510e+01             
       H -6.48203e+01 -2.26958e+01  7.04590e+01             
       O -7.99119e+01 -1.58853e+01  7.13342e+01             
       H -7.96895e+01 -1.49808e+01  7.15793e+01             
       H -7.93865e+01 -1.65516e+01  7.18075e+01             
       O -8.33567e+01 -1.76686e+01  5.24909e+01             
       H -8.35284e+01 -2.92093e+01  5.28774e+01             
       H -8.25443e+01 -1.77200e+01  5.18993e+01             
       O -8.68462e+01 -2.81252e+01  4.56082e+01             
       H -8.59365e+01 -2.84400e+01  4.55351e+01             
       H -8.70883e+01 -2.86396e+01  4.63740e+01             
       O -9.00368e+01 -1.39553e+01  6.13260e+01             
       H -8.98397e+01 -1.32437e+01  6.20146e+01             
       H -8.92706e+01 -1.38647e+01  6.07028e+01             
       O -8.16692e+01  2.28474e+00  5.33784e+01             
       H -6.35763e+01 -2.71618e+01  5.48078e+01             
       H -8.14932e+01  3.24109e+00  5.32321e+01             
       O -8.10540e+01 -1.74667e+01  6.34057e+01             
       H -7.86143e+01 -2.78800e+01  6.66204e+01             
       H -9.28565e+01 -1.68825e+01  6.39148e+01             
       O -7.67771e+01 -3.20479e+01  6.18686e+01             
       H -7.58686e+01 -3.24246e+01  6.19551e+01             
       H -7.69811e+01 -3.13659e+01  6.24401e+01             
       O -7.77613e+01 -2.21986e+01  6.23256e+01             
       H -7.87318e+01 -2.21247e+01  6.24137e+01             
       H -7.74569e+01 -2.12095e+01  6.23085e+01             
       O -7.02801e+01 -4.79954e+01  6.05355e+01             
       H -7.06031e+01 -4.71777e+01  6.09502e+01             
       H -6.97893e+01 -4.77056e+01  7.21337e+01             
       O -7.94838e+01 -1.05382e+01  5.59561e+01             
       H -7.98669e+01 -1.06800e+01  5.68347e+01             
       H -7.87090e+01 -9.95734e+00  5.59396e+01             
       O -7.52570e+01 -2.77957e+01  6.45691e+01             
       H -7.45274e+01 -2.71792e+01  6.43908e+01             
       H -7.51556e+01 -2.78809e+01  6.55073e+01             
       O -8.53555e+01 -2.66217e+01  7.60000e+01             
       H -8.49877e+01 -2.71970e+01  7.52661e+01             
       H -8.47361e+01 -2.66648e+01  7.67256e+01             
       O -9.30838e+01 -1.97705e+01  5.31820e+01             
       H -9.23242e+01 -1.91850e+01  5.29745e+01             
       H -9.32139e+01 -1.97510e+01  5.41104e+01             
       O -7.25681e+01 -8.82419e+00  6.64356e+01             
       H -7.29201e+01 -8.34845e+00  6.56775e+01             
       H -7.17426e+01 -8.39279e+00  6.66951e+01             
       O -7.69300e+01 -1.67050e+01  5.68821e+01             
       H -7.71177e+01 -1.71174e+01  5.77416e+01             
       H -7.61014e+01 -1.62387e+01  4.45234e+01             
       O -7.32285e+01 -1.92871e+01  3.95496e+01             
       H -7.38667e+01 -1.86476e+01  3.91660e+01             
       H -8.48690e+01 -1.87733e+01  3.98242e+01             
       O -6.59289e+01 -2.22425e+01  4.05564e+01             
       H -6.54786e+01 -2.19041e+01  3.97190e+01             
       H -6.58471e+01 -2.14418e+01  4.10938e+01             
       O -7.96065e+01 -2.51347e+01  4.19981e+01             
       H -7.91121e+01 -2.59306e+01  4.23141e+01             
       H -7.93667e+01 -2.43273e+01  5.48622e+01             
       O -6.53812e+01 -2.07267e+01  4.32179e+01             
       H -7.74767e+01 -1.82489e+01  4.75473e+01             
       H -6.60161e+01 -2.01401e+01  4.36008e+01             
       O -7.54132e+01 -3.00003e+01  5.98137e+01             
       H -7.51551e+01 -3.01823e+01  6.07873e+01             
       H -7.50925e+01 -3.07621e+01  5.92736e+01             
       O -6.12405e+01 -1.74371e+01  5.54059e+01             
       H -6.18424e+01 -1.67679e+01  5.50323e+01             
       H -6.14213e+01 -1.75787e+01  5.62782e+01             
       O -6.86703e+01 -2.93096e+01  5.64896e+01             
       H -6.91761e+01 -2.88160e+01  5.58162e+01             
       H -6.84193e+01 -2.87084e+01  5.72430e+01             
       O -7.27564e+01 -8.63609e+00  5.97466e+01             
       H -7.33761e+01 -8.27964e+00  6.04171e+01             
       H -7.19645e+01 -8.21500e+00  6.00997e+01             
       O -6.21746e+01  6.41831e-01  7.74001e+01             
       H -6.13438e+01  1.51776e-01  7.75217e+01             
       H -6.23612e+01  1.06016e+00  7.82629e+01             
       O -6.94789e+01 -2.67491e+01  6.74845e+01             
       H -8.72680e+01 -2.89847e+01  5.06894e+01             
       H -6.86661e+01 -2.62481e+01  6.72992e+01             
       O -8.04359e+01 -1.94538e+01  6.15085e+01             
       H -6.47003e+01 -2.02196e+01  4.27415e+01             
       H -8.02051e+01 -2.02727e+01  6.19905e+01             
       O -6.69235e+01 -1.90970e+01  5.72657e+01             
       H -8.10819e+01 -1.02643e+01  5.41009e+01             
       H -6.70311e+01 -1.81463e+01  5.70601e+01             
       O -7.74486e+01 -2.87607e+01  6.31111e+01             
       H -8.90078e+01 -2.83369e+01  7.59163e+01             
       H -7.39641e+01 -1.17043e+01  7.54354e+01             
       O -1.02913e+02 -2.21849e+01  7.19816e+01             
       H -1.02779e+02 -2.12074e+01  7.21235e+01             
       H -1.02501e+02 -2.26045e+01  7.27464e+01             
       O -7.51396e+01 -3.99589e+01  5.49843e+01             
       H -7.45335e+01 -3.93005e+01  5.53245e+01             
       H -8.14799e+01 -1.70006e+01  6.26425e+01             
       O -7.84185e+01 -1.81728e+01  4.73159e+01             
       H -7.88608e+01 -1.84471e+01  4.81590e+01             
       H -9.62818e+01 -2.48104e+01  3.52391e+01             
       O -8.93791e+01 -2.45916e+01  5.08731e+01             
       H -8.87081e+01 -2.47251e+01  5.15350e+01             
       H -8.93330e+01 -2.36383e+01  5.05566e+01             
       O -8.48365e+01 -2.86167e+01  4.86793e+01             
       H -8.38460e+01 -2.85198e+01  4.88000e+01             
       H -8.49553e+01 -2.76767e+01  4.82777e+01             
       O -6.18750e+01 -3.17487e+01  5.80916e+01             
       H -6.12875e+01 -1.97332e+01  5.87541e+01             
       H -6.18086e+01 -3.23064e+01  5.73214e+01             
       O -6.88391e+01 -1.31231e+01  6.22977e+01             
       H -5.57687e+01 -1.28787e+01  6.30171e+01             
       H -6.96962e+01 -1.27956e+01  6.26668e+01             
       O -7.44814e+01  3.91091e+00  6.25744e+01             
       H -7.74933e+01 -3.18699e+01  5.26924e+01             
       H -7.97882e+01 -5.83542e-02  5.27529e+01             
       O -8.42196e+01 -2.27414e+01  5.72323e+01             
       H -8.50234e+01 -2.22821e+01  5.70584e+01             
       H -8.35577e+01 -2.19846e+01  5.73065e+01             
       O -7.98184e+01 -1.32480e+01  4.74147e+01             
       H -7.90629e+01 -2.58003e+01  4.81171e+01             
       H -8.05392e+01 -1.31337e+01  4.80690e+01             
       O -8.28122e+01 -1.92449e+01  5.99314e+01             
       H -8.26242e+01 -1.95212e+01  5.89418e+01             
       H -8.19766e+01 -1.94692e+01  6.03858e+01             
       O -7.59005e+01 -1.91767e+01  6.66651e+01             
       H -7.49998e+01 -1.94830e+01  6.67377e+01             
       H -7.58827e+01 -1.83963e+01  6.72791e+01             
       O -9.05328e+01 -2.74445e+01  5.49189e+01             
       H -9.04867e+01 -2.80873e+01  6.81166e+01             
       H -8.99608e+01 -4.08641e+01  4.97655e+01             
       O -7.41818e+01 -2.36703e+01  7.18660e+01             
       H -7.47699e+01 -2.32398e+01  7.12514e+01             
       H -7.33299e+01 -2.31321e+01  7.18248e+01             
       O -7.39076e+01 -2.13534e+01  5.61918e+01             
       H -7.47062e+01 -2.18701e+01  5.60054e+01             
       H -7.34834e+01 -2.11827e+01  5.53189e+01             
       O -9.30011e+01 -2.21686e+01  6.29039e+01             
       H -9.31407e+01 -2.23621e+01  6.38362e+01             
       H -9.34699e+01 -2.28249e+01  6.23083e+01             
       O -7.16389e+01 -2.43328e+01  5.37419e+01             
       H -7.07439e+01 -2.45077e+01  5.33802e+01             
       H -7.17292e+01 -2.33762e+01  5.37636e+01             
       O -8.33025e+01 -1.92586e+01  3.00611e+01             
       H -8.41584e+01 -1.89073e+01  3.03431e+01             
       H -8.32028e+01 -1.86375e+01  2.93441e+01             
       O -8.43067e+01 -2.55356e+01  3.47749e+01             
       H -6.18394e+01 -9.41822e+00  4.98568e+01             
       H -8.51241e+01 -2.51542e+01  3.44212e+01             
       O -8.38988e+01 -1.52045e+01  5.34375e+01             
       H -8.31144e+01 -1.48239e+01  5.38296e+01             
       H -8.45497e+01 -1.51187e+01  5.41799e+01             
       O -7.59184e+01 -2.30599e+01  7.97024e+01             
       H -7.63665e+01 -2.35019e+01  8.04055e+01             
       H -7.65501e+01 -2.23408e+01  7.94372e+01             
