192                                                         
# CELL(abcABC):   12.41850    12.41850    12.41850    90.00000    90.00000    90.00000  Step:           0  Bead:       0 x_centroid{angstrom}  cell{angstrom}   
       O -7.83864e+01 -1.35614e+01  6.61219e+01             
       H -7.89402e+01 -1.41990e+01  6.56685e+01             
       H -7.75958e+01 -1.34597e+01  6.55787e+01             
       O -7.42901e+01 -1.20215e+01  6.13862e+01             
       H -6.50777e+01 -1.92488e+01  5.68577e+01             
       H -7.41504e+01 -1.10644e+01  6.13804e+01             
       O -7.64684e+01 -2.37372e+01  5.50410e+01             
       H -7.58345e+01 -1.18295e+01  5.45497e+01             
       H -7.68522e+01 -2.43533e+01  5.56415e+01             
       O -5.92485e+01 -2.07445e+01  5.30703e+01             
       H -5.96281e+01 -1.99261e+01  5.28169e+01             
       H -5.87318e+01 -2.06040e+01  5.38660e+01             
       O -5.79791e+01 -2.09537e+01  5.04357e+01             
       H -5.88213e+01 -2.11788e+01  5.00644e+01             
       H -5.81754e+01 -2.08453e+01  5.13516e+01             
       O -6.17321e+01 -1.83394e+01  6.79755e+01             
       H -6.22532e+01 -1.91758e+01  6.81412e+01             
       H -6.24548e+01 -1.76818e+01  6.78335e+01             
       O -7.38066e+01 -2.25066e+01  3.96071e+01             
       H -7.46878e+01 -2.25204e+01  3.99171e+01             
       H -6.46334e+01  2.52141e+00  5.34017e+01             
       O -5.52957e+01 -1.28664e+01  7.08852e+01             
       H -5.55181e+01 -1.23636e+01  7.00729e+01             
       H -5.50713e+01 -2.46369e+01  7.15611e+01             
       O -7.66756e+01 -6.79509e+00  4.06042e+01             
       H -7.68825e+01 -6.57455e+00  4.15650e+01             
       H -7.66432e+01 -7.74681e+00  4.05334e+01             
       O -6.81647e+01 -2.33627e+01  5.64672e+01             
       H -6.84606e+01 -2.25305e+01  5.70050e+01             
       H -6.80488e+01 -2.31929e+01  5.55268e+01             
       O -7.08988e+01 -7.50382e+00  5.98590e+01             
       H -7.14582e+01 -7.00039e+00  6.05161e+01             
       H -7.13367e+01 -7.31558e+00  5.90140e+01             
       O -6.74218e+01 -1.10672e+01  4.83384e+01             
       H -6.78333e+01 -1.11246e+01  4.92381e+01             
       H -5.82991e+01 -1.40467e+01  4.67815e+01             
       O -6.26659e+01 -3.09697e+01  4.63492e+01             
       H -6.18812e+01 -3.13491e+01  4.59141e+01             
       H -6.07237e+01 -2.59884e+01  6.16198e+01             
       O -7.24552e+01 -1.93168e+01  4.51746e+01             
       H -7.19068e+01 -1.87336e+01  4.46363e+01             
       H -7.30012e+01 -1.98427e+01  4.46189e+01             
       O -5.26495e+01 -2.68640e+01  6.14352e+01             
       H -5.26100e+01 -2.59237e+01  6.11692e+01             
       H -5.17355e+01 -2.71935e+01  6.15386e+01             
       O -6.92828e+01 -1.31742e+01  6.28585e+01             
       H -6.95693e+01 -1.32299e+01  6.19807e+01             
       H -6.85241e+01 -1.37005e+01  6.30514e+01             
       O -7.28457e+01 -1.41509e+01  4.40134e+01             
       H -7.36326e+01 -2.61290e+01  4.42254e+01             
       H -7.22695e+01 -1.34566e+01  4.36533e+01             
       O -7.07890e+01 -2.47749e+01  4.31021e+01             
       H -7.05275e+01 -2.40443e+01  4.37142e+01             
       H -6.99632e+01 -2.51962e+01  4.29649e+01             
       O -7.44540e+01 -1.31930e+01  5.36382e+01             
       H -7.34730e+01 -1.29646e+01  5.36481e+01             
       H -7.48998e+01 -1.29286e+01  5.27994e+01             
       O -6.47195e+01  8.21031e+00  5.17694e+01             
       H -5.18048e+01 -2.42206e+01  4.74144e+01             
       H -6.56643e+01  8.23259e+00  5.16921e+01             
       O -6.84207e+01 -1.89182e+01  6.19145e+01             
       H -6.28280e+01 -2.81622e+01  5.98334e+01             
       H -8.01352e+01 -1.91044e+01  6.25300e+01             
       O -6.51605e+01 -3.03214e+01  5.52723e+01             
       H -6.52715e+01 -2.94247e+01  5.49371e+01             
       H -6.61289e+01 -3.05589e+01  5.51711e+01             
       O -6.82884e+01 -1.62360e+01  5.78509e+01             
       H -6.75400e+01 -1.63734e+01  5.84038e+01             
       H -6.90288e+01 -1.65071e+01  5.83526e+01             
       O -6.10177e+01 -4.35813e+01  5.21911e+01             
       H -6.08901e+01 -4.27542e+01  5.26632e+01             
       H -6.18766e+01 -4.38712e+01  6.48732e+01             
       O -7.01463e+01 -7.46917e+00  5.53532e+01             
       H -7.05369e+01 -6.55802e+00  5.54945e+01             
       H -6.93073e+01 -7.23660e+00  5.49489e+01             
       O -6.23713e+01 -2.15646e+01  5.58405e+01             
       H -6.28599e+01 -2.14702e+01  5.66364e+01             
       H -6.26605e+01 -2.23703e+01  5.53878e+01             
       O -6.59997e+01 -1.89961e+01  7.25928e+01             
       H -6.54400e+01 -1.91026e+01  7.18022e+01             
       H -6.63316e+01 -1.81044e+01  7.25118e+01             
       O -8.39834e+01 -1.55861e+01  4.58892e+01             
       H -8.45862e+01 -1.49918e+01  4.54483e+01             
       H -8.44475e+01 -1.59620e+01  4.66717e+01             
       O -6.14690e+01 -6.40950e+00  6.17356e+01             
       H -6.12929e+01 -6.30552e+00  6.26817e+01             
       H -6.24541e+01 -6.27566e+00  6.16181e+01             
       O -6.41599e+01 -1.28952e+01  5.16401e+01             
       H -6.42242e+01 -1.19117e+01  5.15578e+01             
       H -6.46243e+01 -1.32048e+01  3.84150e+01             
       O -5.93263e+01 -1.22232e+01  2.83548e+01             
       H -5.97353e+01 -1.13724e+01  2.80281e+01             
       H -7.13812e+01 -1.20063e+01  2.92590e+01             
       O -5.32202e+01 -1.61414e+01  3.44629e+01             
       H -5.31486e+01 -1.55950e+01  3.52503e+01             
       H -5.24626e+01 -1.58141e+01  3.38987e+01             
       O -6.86512e+01 -2.29820e+01  3.87297e+01             
       H -6.90315e+01 -2.38903e+01  3.85711e+01             
       H -6.93267e+01 -2.23382e+01  5.07364e+01             
       O -5.47362e+01 -1.53454e+01  3.80564e+01             
       H -6.60885e+01 -1.01268e+01  4.43073e+01             
       H -5.54685e+01 -1.56942e+01  3.74213e+01             
       O -6.56248e+01 -2.57005e+01  5.64106e+01             
       H -6.61448e+01 -2.60150e+01  5.56697e+01             
       H -6.60739e+01 -2.59836e+01  5.72041e+01             
       O -5.54029e+01 -1.76965e+01  4.31470e+01             
       H -5.54245e+01 -1.70230e+01  4.38587e+01             
       H -5.55121e+01 -1.71542e+01  4.23076e+01             
       O -5.76852e+01 -2.70777e+01  5.29086e+01             
       H -5.82976e+01 -2.64033e+01  5.31936e+01             
       H -5.79364e+01 -2.71444e+01  5.20011e+01             
       O -6.43089e+01 -7.05003e+00  6.25196e+01             
       H -6.49326e+01 -6.95062e+00  6.17658e+01             
       H -6.43571e+01 -7.93942e+00  6.28341e+01             
       O -5.56716e+01  3.89303e+00  7.24433e+01             
       H -5.64740e+01  4.38849e+00  7.26837e+01             
       H -5.48251e+01  4.41201e+00  7.25056e+01             
       O -6.02103e+01 -2.66340e+01  6.21533e+01             
       H -7.33390e+01 -2.18771e+01  4.02345e+01             
       H -5.95560e+01 -2.60854e+01  6.25234e+01             
       O -6.48700e+01 -1.97228e+01  5.76446e+01             
       H -5.39207e+01 -1.52760e+01  3.75362e+01             
       H -6.51093e+01 -2.07037e+01  5.75514e+01             
       O -5.79065e+01 -1.33885e+01  4.73445e+01             
       H -6.44454e+01 -5.13966e+00  5.19135e+01             
       H -5.69979e+01 -1.32598e+01  4.70265e+01             
       O -6.29125e+01 -2.59784e+01  5.74028e+01             
       H -7.61862e+01 -2.60923e+01  6.93345e+01             
       H -6.27863e+01 -1.20618e+01  6.17179e+01             
       O -8.77657e+01 -1.57939e+01  6.22876e+01             
       H -8.84511e+01 -1.61755e+01  6.28273e+01             
       H -8.70275e+01 -1.55621e+01  6.28685e+01             
       O -6.47363e+01 -3.68536e+01  4.82168e+01             
       H -6.54764e+01 -3.62680e+01  4.82322e+01             
       H -6.91807e+01 -1.94644e+01  6.22360e+01             
       O -6.56647e+01 -9.68994e+00  4.50687e+01             
       H -6.48321e+01 -1.00964e+01  4.51695e+01             
       H -8.52161e+01 -2.24804e+01  2.14150e+01             
       O -7.57925e+01 -2.32850e+01  4.58833e+01             
       H -7.48752e+01 -2.29281e+01  4.60959e+01             
       H -7.56198e+01 -2.42098e+01  4.56282e+01             
       O -6.71554e+01 -2.32726e+01  4.13858e+01             
       H -6.76381e+01 -2.33718e+01  4.05698e+01             
       H -6.66270e+01 -2.40879e+01  4.13575e+01             
       O -4.80200e+01 -2.85238e+01  5.31725e+01             
       H -4.85109e+01 -1.56946e+01  5.38959e+01             
       H -4.72381e+01 -2.79695e+01  5.30170e+01             
       O -5.88974e+01 -5.15111e+00  5.58806e+01             
       H -4.64520e+01 -4.34515e+00  5.63779e+01             
       H -5.97195e+01 -5.17151e+00  5.53733e+01             
       O -6.42360e+01  2.74186e+00  5.25554e+01             
       H -6.33753e+01 -3.14684e+01  4.59780e+01             
       H -6.75229e+01  2.32098e+00  4.81317e+01             
       O -6.91357e+01 -1.65746e+01  4.88640e+01             
       H -6.89804e+01 -1.74884e+01  4.90822e+01             
       H -7.00299e+01 -1.64350e+01  4.86495e+01             
       O -6.87075e+01 -8.51639e+00  4.48930e+01             
       H -6.94687e+01 -2.04564e+01  4.46193e+01             
       H -6.83998e+01 -8.46902e+00  4.57914e+01             
       O -7.55562e+01 -1.55314e+01  5.42124e+01             
       H -7.50304e+01 -1.47303e+01  5.40464e+01             
       H -7.60056e+01 -1.57087e+01  5.33907e+01             
       O -6.74282e+01 -2.05508e+01  5.46371e+01             
       H -6.71244e+01 -2.14501e+01  5.46409e+01             
       H -6.74435e+01 -2.04215e+01  5.56076e+01             
       O -7.52539e+01 -2.82279e+01  4.64479e+01             
       H -7.52873e+01 -2.92112e+01  5.86760e+01             
       H -7.52303e+01 -3.92557e+01  4.55481e+01             
       O -6.04556e+01 -2.14035e+01  6.17406e+01             
       H -6.08382e+01 -2.18307e+01  6.25485e+01             
       H -6.09600e+01 -2.05570e+01  6.17278e+01             
       O -6.62883e+01 -2.16896e+01  5.06672e+01             
       H -6.65964e+01 -2.09640e+01  5.11929e+01             
       H -6.70085e+01 -2.23000e+01  5.05483e+01             
       O -8.18574e+01 -1.47708e+01  5.57048e+01             
       H -8.12607e+01 -1.49748e+01  5.64962e+01             
       H -8.25344e+01 -1.55276e+01  5.56984e+01             
       O -5.86507e+01 -2.31845e+01  4.57180e+01             
       H -5.80136e+01 -2.26826e+01  4.61769e+01             
       H -5.87432e+01 -2.39583e+01  4.62919e+01             
       O -7.94580e+01 -1.92379e+01  2.73703e+01             
       H -7.96239e+01 -1.95750e+01  2.82478e+01             
       H -7.86247e+01 -1.87824e+01  2.73642e+01             
       O -7.35668e+01 -2.19443e+01  2.15587e+01             
       H -5.26007e+01 -9.65265e+00  3.95978e+01             
       H -7.34501e+01 -2.15033e+01  2.24109e+01             
       O -7.21627e+01 -1.66051e+01  4.83819e+01             
       H -7.29862e+01 -1.70910e+01  4.84953e+01             
       H -7.23079e+01 -1.58581e+01  4.90109e+01             
       O -6.78005e+01 -1.60411e+01  7.80121e+01             
       H -6.77401e+01 -1.58815e+01  7.70774e+01             
       H -6.84913e+01 -1.54108e+01  7.83532e+01             
192                                                         
# CELL(abcABC):   12.41850    12.41850    12.41850    90.00000    90.00000    90.00000  Step:      200000  Bead:       0 x_centroid{angstrom}  cell{angstrom}   
       O -9.23630e+01 -2.07431e+01  7.54432e+01             
       H -9.16986e+01 -2.13417e+01  7.58384e+01             
       H -9.29592e+01 -2.05628e+01  7.62398e+01             
       O -8.96242e+01 -1.94916e+01  6.48700e+01             
       H -7.68840e+01 -2.52441e+01  6.64943e+01             
       H -9.02925e+01 -1.88423e+01  6.51730e+01             
       O -8.98507e+01 -2.47713e+01  6.12972e+01             
       H -8.98773e+01 -1.18327e+01  6.21005e+01             
       H -8.92435e+01 -2.55036e+01  6.13469e+01             
       O -7.45195e+01 -2.15258e+01  5.82337e+01             
       H -7.44678e+01 -2.24657e+01  5.84220e+01             
       H -7.46927e+01 -2.10797e+01  5.90917e+01             
       O -7.29119e+01 -2.37530e+01  5.59920e+01             
       H -7.37327e+01 -2.39209e+01  5.64759e+01             
       H -7.26452e+01 -2.46777e+01  5.57772e+01             
       O -7.45514e+01 -2.23836e+01  7.54923e+01             
       H -7.37195e+01 -2.27934e+01  7.56781e+01             
       H -7.48047e+01 -2.20575e+01  7.63759e+01             
       O -8.75733e+01 -2.47540e+01  4.47239e+01             
       H -8.81980e+01 -2.43085e+01  4.51989e+01             
       H -7.23882e+01 -1.71873e+00  5.70560e+01             
       O -6.64804e+01 -1.80270e+01  7.46057e+01             
       H -6.68177e+01 -1.77045e+01  7.54280e+01             
       H -6.66747e+01 -3.14205e+01  7.46133e+01             
       O -8.69376e+01 -7.97840e+00  4.86457e+01             
       H -8.74047e+01 -7.24574e+00  4.90481e+01             
       H -8.69971e+01 -8.71516e+00  4.92858e+01             
       O -7.64464e+01 -2.70961e+01  5.74053e+01             
       H -7.58221e+01 -2.63997e+01  5.75796e+01             
       H -7.65673e+01 -2.76262e+01  5.82257e+01             
       O -8.64100e+01 -1.17030e+01  6.56008e+01             
       H -8.60813e+01 -1.14523e+01  6.64699e+01             
       H -8.73441e+01 -1.16504e+01  6.58759e+01             
       O -8.36989e+01 -1.37807e+01  4.80519e+01             
       H -8.31825e+01 -1.29755e+01  4.77455e+01             
       H -6.42951e+01 -2.12987e+01  6.06812e+01             
       O -7.47818e+01 -3.31215e+01  5.28992e+01             
       H -7.55911e+01 -3.26008e+01  5.27629e+01             
       H -7.27355e+01 -2.89691e+01  6.24759e+01             
       O -8.49800e+01 -2.59966e+01  5.12654e+01             
       H -8.53082e+01 -2.68929e+01  5.10767e+01             
       H -8.57158e+01 -2.55198e+01  5.17190e+01             
       O -6.80531e+01 -2.58758e+01  6.62321e+01             
       H -6.88913e+01 -2.54450e+01  6.59132e+01             
       H -6.83946e+01 -2.66892e+01  6.65763e+01             
       O -7.89507e+01 -1.32302e+01  7.08662e+01             
       H -7.96903e+01 -1.27457e+01  7.04333e+01             
       H -7.82914e+01 -1.33757e+01  7.01031e+01             
       O -8.40826e+01 -1.73530e+01  4.86996e+01             
       H -8.41865e+01 -3.07626e+01  4.88807e+01             
       H -8.32561e+01 -1.70365e+01  4.91292e+01             
       O -7.79348e+01 -2.86667e+01  4.73372e+01             
       H -7.78784e+01 -2.95161e+01  4.68958e+01             
       H -7.88160e+01 -2.85357e+01  4.76411e+01             
       O -8.61099e+01 -1.58547e+01  5.97193e+01             
       H -8.53160e+01 -1.60657e+01  6.02886e+01             
       H -8.57766e+01 -1.51362e+01  5.91211e+01             
       O -7.69016e+01  9.88987e-01  6.38876e+01             
       H -6.10839e+01 -2.47008e+01  5.90987e+01             
       H -7.67085e+01  5.52639e-04  6.40172e+01             
       O -8.29331e+01 -1.78739e+01  6.64968e+01             
       H -8.09937e+01 -2.85136e+01  6.78420e+01             
       H -9.58346e+01 -1.84720e+01  6.71620e+01             
       O -7.62387e+01 -3.89474e+01  6.43777e+01             
       H -7.60731e+01 -3.92097e+01  6.34428e+01             
       H -7.71909e+01 -3.91458e+01  6.44720e+01             
       O -7.68806e+01 -1.88911e+01  5.87660e+01             
       H -7.67376e+01 -1.96297e+01  5.93597e+01             
       H -7.59876e+01 -1.85768e+01  5.85206e+01             
       O -7.17942e+01 -4.47616e+01  5.51693e+01             
       H -7.27276e+01 -4.47898e+01  5.49849e+01             
       H -7.15225e+01 -4.55368e+01  6.81675e+01             
       O -8.26643e+01 -1.05072e+01  6.43499e+01             
       H -8.35851e+01 -1.03551e+01  6.39656e+01             
       H -8.22046e+01 -1.07673e+01  6.34803e+01             
       O -6.94475e+01 -2.40931e+01  5.81090e+01             
       H -6.97607e+01 -2.34866e+01  5.87416e+01             
       H -7.01589e+01 -2.44178e+01  5.75713e+01             
       O -8.46870e+01 -1.39455e+01  7.99705e+01             
       H -8.51471e+01 -1.47608e+01  7.96710e+01             
       H -8.40589e+01 -1.38886e+01  7.92834e+01             
       O -9.23921e+01 -1.69650e+01  5.22071e+01             
       H -9.24131e+01 -1.70954e+01  5.31692e+01             
       H -9.18674e+01 -1.61410e+01  5.20748e+01             
       O -7.78555e+01 -9.16998e+00  6.82407e+01             
       H -7.83384e+01 -8.33486e+00  6.85419e+01             
       H -7.69371e+01 -8.81963e+00  6.80477e+01             
       O -7.45235e+01 -1.78588e+01  5.53778e+01             
       H -7.52794e+01 -1.74080e+01  5.49858e+01             
       H -7.37503e+01 -1.76536e+01  4.23803e+01             
       O -6.98557e+01 -1.57289e+01  3.31202e+01             
       H -6.96644e+01 -1.54931e+01  3.22392e+01             
       H -8.26775e+01 -1.66061e+01  3.30614e+01             
       O -6.59088e+01 -2.19519e+01  4.01929e+01             
       H -6.60730e+01 -2.19950e+01  4.11621e+01             
       H -6.53865e+01 -2.27247e+01  4.00970e+01             
       O -7.88723e+01 -2.68200e+01  5.19710e+01             
       H -7.93541e+01 -2.61752e+01  5.25534e+01             
       H -7.92048e+01 -2.65606e+01  6.34531e+01             
       O -6.78661e+01 -1.51467e+01  4.73178e+01             
       H -8.33197e+01 -1.33400e+01  5.23728e+01             
       H -6.87707e+01 -1.52713e+01  4.68689e+01             
       O -7.44259e+01 -3.05922e+01  5.81964e+01             
       H -7.43162e+01 -3.03453e+01  5.72329e+01             
       H -7.41823e+01 -2.98508e+01  5.87156e+01             
       O -6.48390e+01 -2.31666e+01  5.83154e+01             
       H -6.50840e+01 -2.24298e+01  5.76603e+01             
       H -6.56292e+01 -2.36991e+01  5.84531e+01             
       O -7.22211e+01 -3.25821e+01  5.19737e+01             
       H -7.16834e+01 -3.24696e+01  5.27409e+01             
       H -7.31367e+01 -3.28403e+01  5.22657e+01             
       O -7.11166e+01 -9.69353e+00  6.90959e+01             
       H -7.12094e+01 -9.66561e+00  7.00731e+01             
       H -7.18150e+01 -1.03377e+01  6.88457e+01             
       O -6.72335e+01 -1.09277e+00  8.67961e+01             
       H -6.73218e+01 -1.84127e+00  8.61580e+01             
       H -6.64831e+01 -5.57728e-01  8.64349e+01             
       O -7.32604e+01 -2.86484e+01  6.32264e+01             
       H -8.79308e+01 -2.50387e+01  4.38967e+01             
       H -7.41860e+01 -2.88639e+01  6.31000e+01             
       O -7.65580e+01 -2.47254e+01  6.72500e+01             
       H -6.74092e+01 -1.46174e+01  4.66814e+01             
       H -7.73752e+01 -2.41127e+01  6.74515e+01             
       O -6.50064e+01 -2.18666e+01  6.08425e+01             
       H -7.60788e+01 -1.10369e+01  6.35320e+01             
       H -6.48371e+01 -2.25659e+01  6.01190e+01             
       O -7.93414e+01 -2.90629e+01  6.77145e+01             
       H -9.17915e+01 -2.99690e+01  8.05597e+01             
       H -7.76052e+01 -2.03709e+01  6.47209e+01             
       O -1.04190e+02 -1.92916e+01  6.92016e+01             
       H -1.04975e+02 -1.96278e+01  6.96457e+01             
       H -1.03535e+02 -1.90049e+01  6.98601e+01             
       O -7.38165e+01 -3.63996e+01  5.96383e+01             
       H -7.35788e+01 -3.64595e+01  6.05718e+01             
       H -8.24134e+01 -1.85060e+01  6.59869e+01             
       O -8.30108e+01 -1.28436e+01  5.31538e+01             
       H -8.30686e+01 -1.19564e+01  5.28163e+01             
       H -1.00030e+02 -1.96446e+01  3.08007e+01             
       O -8.90898e+01 -2.84177e+01  5.47763e+01             
       H -8.89546e+01 -2.78713e+01  5.56057e+01             
       H -8.87627e+01 -2.79520e+01  5.40231e+01             
       O -8.53648e+01 -2.88861e+01  4.11963e+01             
       H -8.44543e+01 -2.91752e+01  4.09346e+01             
       H -8.56080e+01 -2.86598e+01  4.02328e+01             
       O -5.92263e+01 -3.11038e+01  5.83242e+01             
       H -6.01211e+01 -1.88458e+01  5.80511e+01             
       H -5.91640e+01 -3.04623e+01  5.90260e+01             
       O -7.22139e+01 -1.12649e+01  6.21824e+01             
       H -5.90302e+01 -1.12343e+01  6.15518e+01             
       H -7.21640e+01 -1.22339e+01  6.24604e+01             
       O -7.23691e+01 -1.66545e+00  5.80037e+01             
       H -7.49741e+01 -3.35984e+01  5.37343e+01             
       H -8.30472e+01 -1.75411e+00  4.86533e+01             
       O -8.13818e+01 -2.05264e+01  5.28676e+01             
       H -8.09629e+01 -2.08672e+01  5.36844e+01             
       H -8.21779e+01 -2.10845e+01  5.27680e+01             
       O -8.18036e+01 -1.63122e+01  4.97881e+01             
       H -8.10837e+01 -2.91106e+01  4.92269e+01             
       H -8.16650e+01 -1.66624e+01  5.06587e+01             
       O -8.41337e+01 -2.00382e+01  6.13915e+01             
       H -8.51463e+01 -2.01077e+01  6.12721e+01             
       H -8.39869e+01 -2.01928e+01  6.23284e+01             
       O -7.59247e+01 -2.73122e+01  6.14882e+01             
       H -7.51220e+01 -2.74650e+01  6.09879e+01             
       H -7.67376e+01 -2.78377e+01  6.10886e+01             
       O -9.42045e+01 -2.80027e+01  5.52063e+01             
       H -9.47746e+01 -2.85845e+01  6.70886e+01             
       H -9.07960e+01 -4.13145e+01  5.53240e+01             
       O -7.55848e+01 -1.80369e+01  6.25062e+01             
       H -7.59878e+01 -1.74741e+01  6.18733e+01             
       H -7.62690e+01 -1.81670e+01  6.31819e+01             
       O -8.04390e+01 -2.16660e+01  6.05495e+01             
       H -8.04315e+01 -2.12316e+01  6.14110e+01             
       H -7.94563e+01 -2.17381e+01  6.04860e+01             
       O -9.62157e+01 -2.23871e+01  5.96089e+01             
       H -9.63611e+01 -2.17351e+01  6.02284e+01             
       H -9.69830e+01 -2.29489e+01  5.95077e+01             
       O -6.69060e+01 -2.42776e+01  5.57325e+01             
       H -6.73806e+01 -2.34350e+01  5.56118e+01             
       H -6.72730e+01 -2.48150e+01  5.50080e+01             
       O -9.34470e+01 -2.17981e+01  4.29731e+01             
       H -9.30760e+01 -2.12692e+01  4.36800e+01             
       H -9.42612e+01 -2.21284e+01  4.33080e+01             
       O -8.76311e+01 -2.06272e+01  3.09104e+01             
       H -5.90866e+01 -1.43614e+01  4.57929e+01             
       H -8.73976e+01 -2.08229e+01  3.19068e+01             
       O -8.16151e+01 -2.38135e+01  4.96096e+01             
       H -8.12251e+01 -2.31027e+01  4.91456e+01             
       H -8.10198e+01 -2.45941e+01  4.95542e+01             
       O -8.14175e+01 -2.02376e+01  8.31671e+01             
       H -8.23334e+01 -2.01715e+01  8.29951e+01             
       H -8.11690e+01 -2.07611e+01  8.39389e+01             
